/*--------------------------------*- C++ -*----------------------------------*\
| =========                 |                                                 |
| \\      /  F ield         | OpenFOAM: The Open Source CFD Toolbox           |
|  \\    /   O peration     | Version:  2312                                  |
|   \\  /    A nd           | Website:  www.openfoam.com                      |
|    \\/     M anipulation  |                                                 |
\*---------------------------------------------------------------------------*/
FoamFile
{
    version     2.0;
    format      ascii;
    arch        "LSB;label=32;scalar=64";
    class       volScalarField;
    location    "0.08";
    object      p;
}
// * * * * * * * * * * * * * * * * * * * * * * * * * * * * * * * * * * * * * //

dimensions      [1 -1 -2 0 0 0 0];

internalField   nonuniform List<scalar> 
299556
(
19.37475276
19.37475832
19.3747639
19.37476954
19.37477526
19.37478108
19.37478703
19.37479311
19.37479937
19.37480582
19.37481247
19.37481937
19.37482651
19.37483394
19.37484166
19.37484971
19.37485809
19.37486683
19.37487595
19.37488546
19.37489539
19.37490573
19.37491652
19.37492776
19.37493945
19.3749516
19.37496422
19.37497731
19.37499085
19.37500484
19.37501927
19.37503413
19.37504937
19.37506498
19.37508093
19.37509716
19.37511364
19.3751303
19.37514709
19.37516395
19.37518078
19.37519752
19.37521408
19.37523036
19.37524628
19.37526172
19.37527658
19.37529076
19.37530415
19.37531665
19.37532814
19.37533853
19.37534771
19.3753556
19.3753621
19.37536715
19.37537068
19.37537262
19.37537294
19.37537159
19.37536857
19.37536385
19.37535745
19.37534939
19.37533969
19.37532839
19.37531554
19.3753012
19.37528544
19.37526833
19.37524995
19.37523039
19.37520972
19.37518804
19.37516543
19.37514197
19.37511775
19.37509285
19.37506735
19.37504131
19.37501481
19.3749879
19.37496065
19.37493311
19.37490532
19.37487734
19.3748492
19.37482095
19.37479261
19.37476421
19.37475826
19.37477484
19.37479152
19.37480837
19.37482546
19.37484284
19.3748606
19.37487878
19.37489747
19.37491672
19.37493661
19.3749572
19.37497855
19.37500073
19.3750238
19.37504783
19.37507287
19.37509898
19.37512622
19.37515464
19.37518429
19.37521521
19.37524743
19.375281
19.37531593
19.37535224
19.37538994
19.37542903
19.37546949
19.3755113
19.37555442
19.37559879
19.37564435
19.375691
19.37573864
19.37578715
19.37583638
19.37588618
19.37593636
19.37598672
19.37603704
19.37608707
19.37613656
19.37618523
19.37623279
19.37627894
19.37632337
19.37636576
19.37640579
19.37644314
19.3764775
19.37650855
19.37653601
19.37655959
19.37657905
19.37659415
19.37660469
19.3766105
19.37661146
19.37660744
19.3765984
19.37658432
19.3765652
19.37654109
19.37651209
19.37647832
19.37643992
19.37639706
19.37634996
19.37629883
19.37624391
19.37618544
19.37612367
19.37605887
19.3759913
19.3759212
19.37584883
19.37577442
19.37569821
19.3756204
19.3755412
19.37546081
19.37537938
19.37529709
19.37521407
19.37513047
19.37504639
19.37496197
19.37487729
19.37479247
19.3747637
19.37479121
19.37481889
19.37484685
19.37487519
19.37490403
19.37493349
19.37496366
19.37499466
19.37502661
19.3750596
19.37509376
19.37512919
19.37516599
19.37520427
19.37524413
19.37528568
19.37532901
19.3753742
19.37542136
19.37547055
19.37552184
19.37557531
19.37563101
19.37568897
19.37574922
19.37581178
19.37587665
19.37594379
19.37601317
19.37608472
19.37615836
19.37623395
19.37631137
19.37639044
19.37647095
19.37655267
19.37663532
19.37671861
19.3768022
19.37688571
19.37696876
19.37705091
19.3771317
19.37721066
19.37728727
19.37736104
19.37743142
19.37749788
19.3775599
19.37761694
19.3776685
19.3777141
19.37775326
19.37778557
19.37781065
19.37782816
19.37783782
19.37783942
19.37783276
19.37781776
19.37779438
19.37776265
19.37772264
19.3776745
19.37761844
19.37755469
19.37748355
19.37740537
19.37732049
19.37722932
19.37713226
19.37702974
19.37692218
19.37681002
19.37669367
19.37657355
19.37645005
19.37632356
19.37619443
19.37606299
19.37592957
19.37579444
19.37565787
19.3755201
19.37538136
19.37524184
19.37510174
19.37496123
19.37482047
19.37476906
19.37480733
19.37484584
19.37488473
19.37492416
19.37496428
19.37500525
19.37504722
19.37509035
19.37513479
19.3751807
19.37522821
19.3752775
19.37532869
19.37538195
19.37543741
19.37549521
19.37555548
19.37561836
19.37568396
19.3757524
19.37582377
19.37589816
19.37597565
19.37605629
19.37614013
19.37622718
19.37631743
19.37641086
19.3765074
19.37660697
19.37670943
19.37681464
19.37692238
19.37703241
19.37714446
19.37725819
19.37737323
19.37748916
19.37760551
19.37772176
19.37783737
19.37795173
19.3780642
19.37817412
19.3782808
19.3783835
19.3784815
19.37857405
19.37866041
19.37873985
19.37881166
19.37887516
19.37892971
19.37897472
19.37900966
19.37903406
19.37904753
19.37904977
19.37904052
19.37901965
19.37898711
19.37894294
19.37888725
19.37882023
19.37874218
19.37865344
19.37855441
19.37844556
19.3783274
19.37820048
19.37806537
19.37792266
19.37777295
19.37761682
19.37745487
19.37728768
19.3771158
19.37693975
19.37676003
19.37657711
19.37639142
19.37620337
19.37601332
19.3758216
19.37562853
19.37543439
19.37523944
19.37504392
19.37484805
19.3747743
19.3748231
19.37487219
19.37492178
19.37497205
19.37502321
19.37507544
19.37512896
19.37518395
19.37524062
19.37529914
19.37535973
19.37542257
19.37548785
19.37555575
19.37562647
19.37570017
19.37577703
19.37585721
19.37594086
19.37602813
19.37611914
19.37621401
19.37631282
19.37641566
19.37652258
19.37663359
19.3767487
19.37686786
19.37699099
19.37711799
19.37724869
19.37738288
19.37752032
19.37766069
19.37780363
19.37794873
19.3780955
19.37824341
19.37839186
19.37854021
19.37868773
19.37883367
19.37897721
19.37911751
19.37925366
19.37938475
19.37950985
19.37962799
19.37973824
19.37983966
19.37993135
19.38001244
19.3800821
19.38013959
19.38018422
19.3802154
19.38023262
19.38023551
19.38022373
19.38019712
19.38015561
19.38009925
19.38002818
19.37994266
19.37984306
19.3797298
19.37960342
19.37946451
19.37931373
19.37915176
19.37897935
19.37879724
19.3786062
19.37840699
19.37820036
19.37798705
19.37776775
19.37754315
19.37731388
19.37708053
19.37684365
19.37660377
19.37636134
19.3761168
19.37587054
19.37562291
19.37537425
19.37512487
19.37487506
19.37477939
19.37483841
19.37489779
19.37495777
19.37501858
19.37508045
19.37514364
19.37520837
19.37527489
19.37534342
19.37541422
19.3754875
19.37556351
19.37564247
19.37572461
19.37581015
19.37589931
19.37599228
19.37608927
19.37619047
19.37629604
19.37640614
19.37652091
19.37664046
19.37676488
19.37689424
19.37702856
19.37716783
19.37731201
19.37746101
19.37761469
19.37777285
19.37793525
19.37810158
19.37827147
19.37844448
19.37862011
19.37879777
19.37897683
19.37915655
19.37933614
19.37951476
19.37969146
19.37986528
19.38003518
19.38020007
19.38035884
19.38051036
19.38065347
19.38078703
19.3809099
19.38102099
19.38111924
19.38120366
19.38127334
19.38132744
19.38136525
19.38138616
19.3813897
19.38137547
19.38134328
19.38129304
19.3812248
19.38113876
19.38103521
19.3809146
19.38077746
19.38062443
19.38045624
19.38027366
19.38007755
19.3798688
19.37964832
19.37941703
19.37917586
19.37892572
19.3786675
19.37840205
19.37813018
19.37785268
19.37757025
19.37728357
19.37699325
19.37669987
19.37640394
19.37610593
19.37580627
19.37550538
19.37520361
19.37490133
19.3747843
19.37485319
19.37492249
19.37499248
19.37506345
19.37513567
19.37520941
19.37528496
19.37536259
19.37544258
19.37552521
19.37561074
19.37569946
19.37579162
19.37588749
19.37598733
19.3760914
19.37619992
19.37631314
19.37643126
19.37655449
19.37668302
19.376817
19.37695656
19.37710181
19.37725283
19.37740965
19.37757226
19.3777406
19.37791458
19.37809402
19.37827871
19.37846837
19.37866262
19.37886104
19.37906311
19.37926825
19.37947579
19.37968495
19.37989492
19.38010475
19.38031345
19.38051993
19.38072305
19.38092161
19.38111433
19.38129991
19.38147703
19.38164433
19.38180048
19.38194415
19.38207405
19.38218895
19.38228769
19.3823692
19.3824325
19.38247676
19.38250126
19.38250546
19.38248888
19.3824513
19.38239262
19.38231291
19.38221237
19.38209138
19.38195044
19.38179018
19.38161136
19.38141481
19.38120146
19.38097232
19.3807284
19.38047079
19.38020057
19.37991881
19.37962659
19.37932495
19.37901487
19.37869732
19.37837319
19.37804333
19.37770852
19.37736947
19.37702686
19.37668127
19.37633328
19.37598337
19.37563202
19.37527966
19.37492669
19.374789
19.37486732
19.37494612
19.37502571
19.3751064
19.37518851
19.37527236
19.37535826
19.37544653
19.37553749
19.37563144
19.37572869
19.37582957
19.37593437
19.37604339
19.37615692
19.37627526
19.37639867
19.37652742
19.37666175
19.3768019
19.37694807
19.37710044
19.37725917
19.37742438
19.37759615
19.37777452
19.37795949
19.37815099
19.37834891
19.37855306
19.37876318
19.37897896
19.37919999
19.37942577
19.37965573
19.37988919
19.38012539
19.38036346
19.38060246
19.38084133
19.38107892
19.38131401
19.38154529
19.38177139
19.38199087
19.38220223
19.38240397
19.38259454
19.38277243
19.38293612
19.38308413
19.38321507
19.3833276
19.38342051
19.38349269
19.38354318
19.38357116
19.38357601
19.3835572
19.38351446
19.38344768
19.38335694
19.38324249
19.38310474
19.38294427
19.3827618
19.38255819
19.38233441
19.3820915
19.38183062
19.38155293
19.38125966
19.38095205
19.38063133
19.38029872
19.37995539
19.37960249
19.3792411
19.37887225
19.37849689
19.37811591
19.37773013
19.37734031
19.37694712
19.3765512
19.37615312
19.3757534
19.37535255
19.37495101
19.37479346
19.37488074
19.37496855
19.37505723
19.37514715
19.37523865
19.37533209
19.37542782
19.37552619
19.37562754
19.37573224
19.37584063
19.37595305
19.37606984
19.37619134
19.37631787
19.37644975
19.3765873
19.37673079
19.37688052
19.37703672
19.37719965
19.37736949
19.37754643
19.37773059
19.37792208
19.37812093
19.37832714
19.37854065
19.37876132
19.37898895
19.37922326
19.37946389
19.37971038
19.37996219
19.38021867
19.38047908
19.38074256
19.38100816
19.3812748
19.38154132
19.38180644
19.38206879
19.38232691
19.38257927
19.38282425
19.3830602
19.38328543
19.38349822
19.38369685
19.38387965
19.38404497
19.38419123
19.38431695
19.38442076
19.38450144
19.38455789
19.38458922
19.38459472
19.3845738
19.38452616
19.38445168
19.38435045
19.38422273
19.38406901
19.38388993
19.38368629
19.38345907
19.38320933
19.38293826
19.38264713
19.38233727
19.38201004
19.38166683
19.381309
19.38093793
19.38055493
19.38016127
19.37975816
19.37934675
19.37892811
19.37850322
19.378073
19.37763829
19.37719984
19.37675836
19.37631448
19.37586879
19.37542183
19.37497412
19.37479765
19.37489335
19.37498963
19.37508687
19.37518546
19.37528579
19.37538824
19.37549321
19.37560107
19.3757122
19.37582701
19.37594586
19.37606913
19.3761972
19.37633043
19.37646918
19.37661381
19.37676464
19.37692201
19.37708621
19.37725752
19.37743621
19.37762249
19.37781655
19.37801855
19.37822859
19.37844672
19.37867294
19.37890716
19.37914925
19.379399
19.37965608
19.37992012
19.3801906
19.38046694
19.38074843
19.38103424
19.38132345
19.38161501
19.38190773
19.38220034
19.38249144
19.38277953
19.38306299
19.38334015
19.38360924
19.38386843
19.38411586
19.38434965
19.38456791
19.38476879
19.38495048
19.38511125
19.38524946
19.38536361
19.38545235
19.38551447
19.38554898
19.38555513
19.38553223
19.38547998
19.38539824
19.38528711
19.38514688
19.38497808
19.38478143
19.38455781
19.38430828
19.38403403
19.38373637
19.3834167
19.38307647
19.38271719
19.38234038
19.38194755
19.3815402
19.38111977
19.38068768
19.38024525
19.37979372
19.37933429
19.37886802
19.37839593
19.37791892
19.37743784
19.37695344
19.37646643
19.37597744
19.37548707
19.37499588
19.37480155
19.37490508
19.37500923
19.37511443
19.37522109
19.37532963
19.37544046
19.37555402
19.37567071
19.37579094
19.37591515
19.37604373
19.37617709
19.37631565
19.3764598
19.37660992
19.3767664
19.3769296
19.37709987
19.37727754
19.37746292
19.37765627
19.37785785
19.37806787
19.37828647
19.37851379
19.37874987
19.37899471
19.37924823
19.37951028
19.37978063
19.38005894
19.38034479
19.38063765
19.38093686
19.38124166
19.38155118
19.38186439
19.38218017
19.38249724
19.38281421
19.38312958
19.3834417
19.38374885
19.38404919
19.38434081
19.38462173
19.38488994
19.38514338
19.38538001
19.38559782
19.38579484
19.3859692
19.38611912
19.38624296
19.38633926
19.38640671
19.38644423
19.386451
19.38642628
19.38636974
19.38628123
19.38616085
19.38600894
19.38582605
19.38561298
19.38537069
19.38510032
19.38480318
19.38448068
19.38413434
19.38376575
19.38337654
19.38296836
19.38254285
19.38210164
19.38164631
19.38117835
19.38069923
19.3802103
19.37971282
19.37920797
19.37869684
19.37818042
19.3776596
19.37713521
19.376608
19.37607867
19.37554785
19.37501616
19.37480513
19.37491585
19.37502724
19.37513974
19.37525381
19.37536989
19.37548843
19.37560988
19.37573468
19.37586327
19.37599611
19.37613363
19.37627627
19.37642447
19.37657864
19.37673922
19.37690659
19.37708116
19.37726329
19.37745334
19.37765164
19.37785848
19.37807413
19.3782988
19.37853268
19.37877588
19.37902847
19.37929044
19.37956172
19.37984214
19.38013145
19.3804293
19.38073523
19.38104868
19.38136896
19.38169524
19.38202659
19.38236193
19.38270003
19.38303955
19.38337899
19.38371674
19.38405104
19.38438004
19.38470178
19.38501421
19.3853152
19.38560259
19.38587419
19.38612781
19.38636127
19.38657248
19.38675941
19.38692017
19.38705299
19.38715629
19.38722869
19.38726901
19.38727637
19.38724999
19.38718951
19.38709476
19.38696586
19.38680317
19.38660729
19.38637907
19.38611955
19.38582995
19.38551169
19.38516627
19.38479533
19.38440058
19.38398376
19.38354665
19.38309102
19.3826186
19.38213108
19.38163008
19.38111716
19.38059376
19.38006125
19.37952087
19.3789738
19.37842108
19.37786368
19.37730248
19.37673829
19.37617183
19.37560379
19.37503482
19.37480837
19.3749256
19.37504354
19.37516266
19.37528344
19.37540634
19.37553185
19.37566044
19.37579258
19.37592874
19.3760694
19.37621501
19.37636605
19.37652297
19.37668623
19.37685626
19.3770335
19.37721836
19.37741124
19.3776125
19.3778225
19.37804156
19.37826995
19.37850791
19.37875562
19.37901322
19.37928077
19.37955828
19.37984565
19.38014272
19.38044923
19.38076479
19.38108895
19.38142108
19.38176047
19.38210625
19.38245743
19.38281285
19.38317123
19.38353114
19.38389099
19.38424908
19.38460354
19.38495242
19.38529362
19.38562498
19.38594424
19.3862491
19.38653723
19.38680631
19.38705403
19.38727816
19.38747656
19.3876472
19.38778821
19.38789792
19.38797484
19.38801773
19.38802565
19.38799778
19.38793372
19.38783331
19.38769667
19.38752418
19.3873165
19.3870745
19.38679931
19.38649223
19.38615476
19.38578851
19.38539521
19.38497668
19.38453477
19.38407138
19.38358838
19.38308761
19.38257086
19.38203987
19.38149626
19.38094158
19.38037726
19.37980465
19.37922497
19.37863933
19.37804875
19.37745417
19.37685643
19.3762563
19.37565451
19.37505174
19.37481125
19.37493427
19.37505803
19.37518303
19.37530977
19.37543875
19.37557046
19.3757054
19.37584406
19.37598695
19.37613455
19.37628737
19.37644587
19.37661056
19.37678189
19.37696033
19.37714635
19.37734036
19.37754279
19.37775403
19.37797444
19.37820437
19.37844409
19.37869387
19.3789539
19.37922431
19.37950518
19.37979651
19.38009821
19.38041011
19.38073193
19.38106328
19.38140367
19.38175245
19.38210888
19.38247203
19.38284088
19.38321421
19.38359068
19.38396877
19.38434684
19.38472308
19.38509555
19.38546217
19.38582075
19.38616902
19.38650459
19.38682506
19.38712798
19.38741088
19.38767137
19.38790706
19.38811572
19.38829521
19.38844356
19.388559
19.38863998
19.38868519
19.38869363
19.38866444
19.3885972
19.38849175
19.3883482
19.38816697
19.38794874
19.38769444
19.38740526
19.38708258
19.38672796
19.38634311
19.38592985
19.38549009
19.38502581
19.38453897
19.38403155
19.38350549
19.38296268
19.38240493
19.38183396
19.3812514
19.38065875
19.38005741
19.37944867
19.3788337
19.37821357
19.37758925
19.37696163
19.37633152
19.37569967
19.3750668
19.37481375
19.3749418
19.37507062
19.37520073
19.37533266
19.37546691
19.375604
19.37574446
19.3758888
19.37603753
19.37619118
19.37635024
19.37651524
19.37668667
19.37686502
19.37705078
19.37724442
19.37744638
19.37765712
19.37787703
19.3781065
19.37834588
19.37859546
19.37885552
19.37912626
19.37940781
19.37970027
19.38000363
19.3803178
19.3806426
19.38097775
19.38132284
19.38167736
19.38204064
19.3824119
19.38279019
19.38317443
19.38356337
19.3839556
19.38434955
19.3847435
19.38513557
19.38552373
19.38590583
19.38627959
19.38664261
19.38699244
19.38732654
19.38764236
19.38793735
19.38820898
19.38845479
19.38867242
19.38885965
19.38901442
19.38913489
19.38921942
19.38926666
19.38927557
19.38924524
19.38917524
19.38906539
19.38891582
19.38872697
19.38849954
19.38823452
19.38793313
19.38759683
19.38722725
19.38682618
19.38639551
19.38593725
19.38545344
19.38494615
19.38441745
19.38386935
19.38330383
19.38272277
19.38212797
19.38152112
19.38090379
19.38027743
19.37964339
19.37900289
19.37835703
19.37770682
19.3770532
19.37639699
19.37573898
19.37507991
19.37481587
19.37494815
19.37508124
19.37521566
19.37535195
19.37549064
19.37563228
19.37577739
19.37592651
19.37608017
19.37623891
19.37640325
19.37657372
19.37675083
19.3769351
19.37712703
19.3773271
19.37753578
19.37775352
19.37798075
19.37821785
19.3784652
19.3787231
19.37899183
19.3792716
19.37956256
19.3798648
19.38017831
19.380503
19.3808387
19.3811851
19.38154179
19.38190824
19.38228376
19.38266755
19.38305863
19.38345588
19.38385801
19.38426356
19.38467091
19.38507829
19.38548375
19.38588519
19.38628039
19.38666698
19.38704249
19.38740438
19.38775002
19.38807678
19.388382
19.38866308
19.38891745
19.38914269
19.38933648
19.3894967
19.38962143
19.38970899
19.38975796
19.38976727
19.38973598
19.38966365
19.38955009
19.38939543
19.38920013
19.38896492
19.38869083
19.38837912
19.3880313
19.38764907
19.38723427
19.38678888
19.38631496
19.38581465
19.38529007
19.38474338
19.38417665
19.38359193
19.38299117
19.38237623
19.38174886
19.38111068
19.3804632
19.37980779
19.37914572
19.37847814
19.37780608
19.37713049
19.37645225
19.37577216
19.37509098
19.37481757
19.37495328
19.37508981
19.37522771
19.37536753
19.37550981
19.37565512
19.37580398
19.37595697
19.37611461
19.37627746
19.37644606
19.37662095
19.37680266
19.37699171
19.37718861
19.37739388
19.37760798
19.37783138
19.37806451
19.37830779
19.37856158
19.3788262
19.37910194
19.37938901
19.37968757
19.37999771
19.38031943
19.38065263
19.38099713
19.38135262
19.3817187
19.38209479
19.38248022
19.38287415
19.38327557
19.38368335
19.38409614
19.38451248
19.38493068
19.38534893
19.38576523
19.38617743
19.38658323
19.38698022
19.38736586
19.38773752
19.38809252
19.38842814
19.38874166
19.38903039
19.38929172
19.38952313
19.38972225
19.38988689
19.39001508
19.3901051
19.39015548
19.39016513
19.39013307
19.39005885
19.38994229
19.38978351
19.38958299
19.38934148
19.38906003
19.38873997
19.38838282
19.38799033
19.38756442
19.3871071
19.38662051
19.38610683
19.38556827
19.385007
19.38442519
19.38382494
19.38320824
19.38257701
19.38193303
19.38127798
19.38061341
19.37994072
19.37926121
19.37857606
19.37788633
19.37719299
19.37649694
19.37579899
19.37509993
19.37481886
19.37495715
19.37509628
19.37523681
19.3753793
19.3755243
19.37567237
19.37582408
19.37597998
19.37614063
19.37630659
19.3764784
19.37665663
19.37684181
19.37703447
19.37723514
19.37744433
19.37766253
19.37789021
19.37812781
19.37837575
19.3786344
19.3789041
19.37918514
19.37947773
19.37978204
19.38009815
19.38042607
19.3807657
19.38111686
19.38147924
19.38185241
19.3822358
19.38262872
19.38303031
19.38343957
19.3838553
19.38427618
19.38470067
19.38512709
19.38555357
19.38597808
19.38639842
19.38681226
19.38721712
19.38761042
19.38798949
19.38835158
19.38869392
19.38901373
19.38930827
19.38957487
19.38981095
19.39001411
19.39018211
19.39031294
19.39040482
19.39045628
19.39046618
19.39043354
19.3903579
19.39023906
19.39007717
19.38987269
19.38962641
19.3893394
19.389013
19.38864878
19.38824854
19.38781421
19.38734786
19.38685168
19.38632788
19.38577871
19.38520642
19.3846132
19.38400119
19.38337243
19.38272886
19.38207233
19.38140452
19.38072701
19.38004125
19.37934855
19.37865011
19.37794702
19.37724025
19.37653073
19.37581928
19.3751067
19.37481972
19.37495975
19.37510062
19.37524291
19.37538718
19.375534
19.37568393
19.37583754
19.3759954
19.37615806
19.3763261
19.37650008
19.37668054
19.37686805
19.37706313
19.37726633
19.37747814
19.37769909
19.37792963
19.37817023
19.37842129
19.37868321
19.37895632
19.3792409
19.37953719
19.37984535
19.38016547
19.38049755
19.3808415
19.38119712
19.38156411
19.38194204
19.38233033
19.38272827
19.38313501
19.38354951
19.38397059
19.38439689
19.38482686
19.38525879
19.38569079
19.38612081
19.38654662
19.38696585
19.387376
19.38777445
19.38815849
19.38852534
19.38887219
19.38919623
19.38949467
19.38976481
19.39000404
19.39020991
19.39038017
19.39051276
19.3906059
19.39065808
19.39066815
19.39063513
19.39055853
19.39043817
19.39027418
19.39006705
19.38981757
19.38952682
19.38919617
19.38882722
19.38842176
19.38798178
19.38750937
19.38700674
19.38647615
19.38591988
19.38534019
19.38473931
19.3841194
19.38348255
19.38283071
19.38216575
19.38148938
19.3808032
19.38010867
19.37940713
19.37869978
19.37798772
19.37727195
19.37655339
19.37583288
19.37511123
19.37482015
19.37496105
19.3751028
19.37524597
19.37539114
19.37553887
19.37568973
19.37584429
19.37600313
19.37616681
19.37633589
19.37651095
19.37669254
19.37688121
19.37707751
19.37728197
19.37749511
19.37771743
19.37794941
19.3781915
19.37844414
19.37870769
19.37898251
19.37926887
19.37956702
19.37987711
19.38019924
19.38053341
19.38087952
19.38123738
19.38160669
19.381987
19.38237775
19.38277821
19.38318753
19.38360467
19.38402843
19.38445745
19.38489017
19.38532487
19.38575964
19.38619242
19.38662098
19.38704292
19.38745572
19.38785676
19.3882433
19.38861254
19.38896166
19.38928782
19.38958822
19.38986013
19.39010094
19.39030818
19.39047957
19.39061305
19.39070682
19.39075937
19.39076953
19.39073631
19.39065924
19.39053811
19.39037307
19.39016461
19.38991352
19.38962089
19.38928811
19.38891677
19.3885087
19.38806588
19.38759043
19.38708457
19.38655057
19.38599072
19.38540732
19.38480259
19.38417873
19.38353781
19.38288182
19.38221263
19.38153197
19.38084143
19.38014251
19.37943652
19.37872469
19.37800814
19.37728785
19.37656476
19.37583971
19.37511351
19.37482015
19.37496105
19.3751028
19.37524597
19.37539114
19.37553887
19.37568973
19.37584429
19.37600313
19.37616681
19.37633589
19.37651095
19.37669254
19.37688121
19.37707751
19.37728197
19.3774951
19.37771743
19.37794941
19.3781915
19.37844414
19.37870769
19.37898251
19.37926887
19.37956702
19.37987711
19.38019924
19.38053341
19.38087952
19.38123738
19.38160669
19.381987
19.38237775
19.38277821
19.38318753
19.38360467
19.38402843
19.38445745
19.38489017
19.38532487
19.38575964
19.38619242
19.38662098
19.38704292
19.38745572
19.38785676
19.3882433
19.38861254
19.38896166
19.38928782
19.38958822
19.38986013
19.39010094
19.39030818
19.39047957
19.39061305
19.39070682
19.39075937
19.39076953
19.39073631
19.39065924
19.39053811
19.39037307
19.39016461
19.38991352
19.38962089
19.38928811
19.38891677
19.3885087
19.38806588
19.38759043
19.38708457
19.38655057
19.38599072
19.38540732
19.38480259
19.38417873
19.38353781
19.38288182
19.38221263
19.38153197
19.38084143
19.38014251
19.37943652
19.37872469
19.37800814
19.37728785
19.37656476
19.37583971
19.37511351
19.37481972
19.37495975
19.37510062
19.37524291
19.37538718
19.375534
19.37568393
19.37583754
19.3759954
19.37615806
19.3763261
19.37650008
19.37668054
19.37686805
19.37706313
19.37726633
19.37747814
19.37769909
19.37792963
19.37817023
19.37842129
19.37868321
19.37895632
19.3792409
19.37953719
19.37984535
19.38016547
19.38049755
19.3808415
19.38119712
19.38156411
19.38194204
19.38233033
19.38272827
19.38313501
19.38354951
19.38397059
19.38439689
19.38482686
19.38525879
19.38569079
19.38612081
19.38654662
19.38696585
19.387376
19.38777445
19.38815849
19.38852534
19.38887219
19.38919623
19.38949467
19.38976481
19.39000404
19.39020991
19.39038017
19.39051276
19.3906059
19.39065808
19.39066816
19.39063513
19.39055854
19.39043817
19.39027419
19.39006706
19.38981757
19.38952683
19.38919617
19.38882722
19.38842176
19.38798178
19.38750937
19.38700675
19.38647616
19.38591988
19.38534019
19.38473931
19.3841194
19.38348255
19.38283071
19.38216575
19.38148938
19.3808032
19.38010867
19.37940713
19.37869978
19.37798772
19.37727195
19.37655339
19.37583288
19.37511123
19.37481886
19.37495715
19.37509628
19.37523681
19.3753793
19.3755243
19.37567237
19.37582408
19.37597998
19.37614063
19.37630659
19.3764784
19.37665663
19.37684181
19.37703447
19.37723514
19.37744433
19.37766253
19.37789021
19.37812781
19.37837575
19.3786344
19.3789041
19.37918514
19.37947773
19.37978204
19.38009815
19.38042607
19.3807657
19.38111686
19.38147924
19.3818524
19.3822358
19.38262872
19.38303031
19.38343957
19.3838553
19.38427618
19.38470067
19.38512709
19.38555357
19.38597808
19.38639842
19.38681226
19.38721712
19.38761042
19.38798949
19.38835158
19.38869392
19.38901373
19.38930827
19.38957487
19.38981095
19.39001411
19.39018211
19.39031294
19.39040482
19.39045628
19.39046618
19.39043354
19.3903579
19.39023906
19.39007717
19.38987269
19.38962641
19.3893394
19.389013
19.38864879
19.38824854
19.38781421
19.38734786
19.38685168
19.38632788
19.38577871
19.38520642
19.3846132
19.38400119
19.38337243
19.38272886
19.38207233
19.38140452
19.38072701
19.38004125
19.37934855
19.37865011
19.37794702
19.37724025
19.37653073
19.37581928
19.3751067
19.37481757
19.37495328
19.37508981
19.37522771
19.37536753
19.37550981
19.37565512
19.37580398
19.37595697
19.37611461
19.37627746
19.37644606
19.37662095
19.37680266
19.37699171
19.37718861
19.37739388
19.37760798
19.37783138
19.37806451
19.37830779
19.37856158
19.3788262
19.37910194
19.37938901
19.37968757
19.37999771
19.38031942
19.38065263
19.38099713
19.38135262
19.3817187
19.38209479
19.38248022
19.38287414
19.38327557
19.38368334
19.38409614
19.38451248
19.38493068
19.38534893
19.38576523
19.38617743
19.38658323
19.38698022
19.38736586
19.38773752
19.38809252
19.38842814
19.38874166
19.3890304
19.38929172
19.38952313
19.38972225
19.38988689
19.39001509
19.3901051
19.39015549
19.39016513
19.39013307
19.39005886
19.38994229
19.38978352
19.38958299
19.38934148
19.38906004
19.38873997
19.38838282
19.38799034
19.38756442
19.3871071
19.38662052
19.38610684
19.38556827
19.385007
19.38442519
19.38382494
19.38320824
19.38257701
19.38193303
19.38127798
19.38061341
19.37994072
19.37926121
19.37857606
19.37788633
19.37719299
19.37649694
19.37579899
19.37509993
19.37481587
19.37494815
19.37508124
19.37521566
19.37535195
19.37549064
19.37563228
19.37577739
19.37592651
19.37608017
19.37623891
19.37640325
19.37657372
19.37675083
19.3769351
19.37712703
19.3773271
19.37753578
19.37775352
19.37798075
19.37821785
19.3784652
19.3787231
19.37899183
19.3792716
19.37956256
19.3798648
19.38017831
19.380503
19.3808387
19.3811851
19.38154179
19.38190823
19.38228376
19.38266755
19.38305863
19.38345588
19.383858
19.38426356
19.38467091
19.38507829
19.38548375
19.38588519
19.38628039
19.38666698
19.38704249
19.38740438
19.38775002
19.38807678
19.388382
19.38866308
19.38891745
19.38914269
19.38933648
19.38949671
19.38962144
19.38970899
19.38975797
19.38976728
19.38973599
19.38966365
19.38955009
19.38939544
19.38920013
19.38896492
19.38869083
19.38837912
19.38803131
19.38764907
19.38723427
19.38678888
19.38631496
19.38581465
19.38529008
19.38474338
19.38417665
19.38359193
19.38299117
19.38237623
19.38174886
19.38111068
19.3804632
19.37980779
19.37914572
19.37847814
19.37780608
19.37713049
19.37645225
19.37577216
19.37509098
19.37481375
19.3749418
19.37507062
19.37520073
19.37533266
19.37546691
19.375604
19.37574446
19.3758888
19.37603753
19.37619118
19.37635024
19.37651524
19.37668667
19.37686502
19.37705078
19.37724441
19.37744638
19.37765712
19.37787703
19.3781065
19.37834588
19.37859546
19.37885552
19.37912625
19.37940781
19.37970027
19.38000363
19.3803178
19.3806426
19.38097775
19.38132284
19.38167736
19.38204064
19.3824119
19.38279019
19.38317443
19.38356337
19.3839556
19.38434955
19.3847435
19.38513557
19.38552373
19.38590583
19.38627959
19.38664261
19.38699244
19.38732654
19.38764236
19.38793735
19.38820898
19.38845479
19.38867242
19.38885965
19.38901443
19.38913489
19.38921943
19.38926667
19.38927558
19.38924524
19.38917524
19.38906539
19.38891583
19.38872697
19.38849954
19.38823452
19.38793314
19.38759684
19.38722726
19.38682618
19.38639551
19.38593725
19.38545344
19.38494615
19.38441745
19.38386935
19.38330383
19.38272277
19.38212797
19.38152112
19.38090379
19.38027743
19.37964339
19.37900289
19.37835703
19.37770682
19.3770532
19.37639699
19.37573898
19.37507991
19.37481125
19.37493427
19.37505803
19.37518303
19.37530977
19.37543875
19.37557046
19.3757054
19.37584406
19.37598695
19.37613455
19.37628737
19.37644587
19.37661055
19.37678189
19.37696033
19.37714634
19.37734036
19.37754279
19.37775403
19.37797444
19.37820437
19.37844409
19.37869387
19.3789539
19.37922431
19.37950518
19.37979651
19.38009821
19.38041011
19.38073193
19.38106328
19.38140367
19.38175245
19.38210887
19.38247203
19.38284088
19.38321421
19.38359068
19.38396877
19.38434684
19.38472308
19.38509555
19.38546217
19.38582075
19.38616902
19.38650459
19.38682507
19.38712798
19.38741089
19.38767137
19.38790707
19.38811573
19.38829522
19.38844357
19.38855901
19.38863999
19.38868519
19.38869364
19.38866444
19.3885972
19.38849175
19.3883482
19.38816697
19.38794874
19.38769445
19.38740527
19.38708258
19.38672796
19.38634311
19.38592985
19.3854901
19.38502581
19.38453897
19.38403155
19.38350549
19.38296268
19.38240493
19.38183396
19.3812514
19.38065875
19.38005741
19.37944867
19.3788337
19.37821357
19.37758925
19.37696163
19.37633152
19.37569967
19.3750668
19.37480837
19.3749256
19.37504354
19.37516266
19.37528344
19.37540634
19.37553185
19.37566044
19.37579258
19.37592874
19.3760694
19.37621501
19.37636605
19.37652297
19.37668623
19.37685626
19.3770335