/*--------------------------------*- C++ -*----------------------------------*\
| =========                 |                                                 |
| \\      /  F ield         | OpenFOAM: The Open Source CFD Toolbox           |
|  \\    /   O peration     | Version:  2312                                  |
|   \\  /    A nd           | Website:  www.openfoam.com                      |
|    \\/     M anipulation  |                                                 |
\*---------------------------------------------------------------------------*/
FoamFile
{
    version     2.0;
    format      ascii;
    arch        "LSB;label=32;scalar=64";
    class       volScalarField;
    location    "0.13";
    object      p;
}
// * * * * * * * * * * * * * * * * * * * * * * * * * * * * * * * * * * * * * //

dimensions      [1 -1 -2 0 0 0 0];

internalField   nonuniform List<scalar> 
299556
(
19.37475344
19.37476036
19.37476732
19.37477436
19.37478151
19.37478879
19.37479624
19.37480389
19.37481177
19.37481991
19.37482834
19.3748371
19.37484621
19.3748557
19.37486561
19.37487597
19.37488681
19.37489815
19.37491002
19.37492246
19.37493548
19.37494912
19.37496338
19.3749783
19.37499388
19.37501015
19.37502711
19.37504476
19.3750631
19.37508213
19.37510184
19.3751222
19.37514318
19.37516476
19.37518688
19.3752095
19.37523255
19.37525595
19.37527962
19.37530348
19.3753274
19.37535128
19.375375
19.37539841
19.37542138
19.37544375
19.37546538
19.3754861
19.37550575
19.37552416
19.37554118
19.37555665
19.37557042
19.37558234
19.37559228
19.37560014
19.37560579
19.37560916
19.37561017
19.37560878
19.37560495
19.37559867
19.37558996
19.37557884
19.37556536
19.37554959
19.37553161
19.3755115
19.37548939
19.37546538
19.3754396
19.37541218
19.37538324
19.37535293
19.37532136
19.37528868
19.375255
19.37522044
19.37518511
19.37514912
19.37511255
19.3750755
19.37503805
19.37500025
19.37496218
19.37492389
19.37488543
19.37484683
19.37480814
19.3747694
19.37476029
19.37478096
19.37480176
19.37482279
19.37484414
19.3748659
19.37488816
19.37491102
19.37493456
19.37495888
19.37498408
19.37501024
19.37503747
19.37506584
19.37509546
19.37512641
19.37515879
19.37519267
19.37522816
19.37526532
19.37530423
19.37534497
19.37538761
19.37543218
19.37547876
19.37552737
19.37557805
19.3756308
19.37568562
19.3757425
19.37580139
19.37586224
19.37592497
19.37598946
19.37605559
19.3761232
19.37619209
19.37626205
19.37633282
19.37640413
19.37647565
19.37654706
19.37661796
19.37668796
19.37675664
19.37682355
19.37688822
19.37695018
19.37700893
19.377064
19.37711491
19.37716117
19.37720235
19.37723801
19.37726777
19.37729126
19.37730817
19.37731825
19.3773213
19.37731713
19.37730569
19.37728693
19.37726088
19.37722764
19.37718734
19.37714018
19.37708641
19.3770263
19.37696018
19.37688839
19.37681131
19.37672931
19.3766428
19.37655217
19.3764578
19.3763601
19.37625941
19.3761561
19.37605049
19.37594289
19.3758336
19.37572285
19.37561089
19.37549792
19.37538413
19.37526969
19.37515473
19.37503938
19.37492375
19.37480796
19.37476707
19.37480136
19.37483588
19.37487077
19.37490619
19.3749423
19.37497923
19.37501716
19.37505622
19.37509658
19.37513839
19.3751818
19.37522697
19.37527405
19.37532319
19.37537455
19.37542828
19.37548451
19.37554339
19.37560505
19.37566962
19.37573723
19.37580797
19.37588195
19.37595924
19.37603991
19.376124
19.37621155
19.37630253
19.37639692
19.37649467
19.37659566
19.37669977
19.37680681
19.37691658
19.3770288
19.37714315
19.37725929
19.37737677
19.37749515
19.3776139
19.37773245
19.37785017
19.3779664
19.37808044
19.37819154
19.37829893
19.37840182
19.3784994
19.37859086
19.3786754
19.37875225
19.37882065
19.37887989
19.37892931
19.37896834
19.37899645
19.3790132
19.37901828
19.37901138
19.37899238
19.37896124
19.378918
19.3788628
19.37879589
19.37871759
19.3786283
19.37852849
19.3784187
19.37829951
19.37817152
19.37803538
19.37789175
19.37774128
19.37758462
19.37742241
19.37725526
19.37708376
19.37690845
19.37672985
19.37654842
19.3763646
19.37617877
19.37599127
19.37580241
19.37561246
19.37542166
19.37523023
19.37503834
19.37484618
19.37477375
19.37482145
19.37486947
19.37491801
19.37496729
19.37501751
19.3750689
19.37512166
19.375176
19.37523215
19.37529031
19.37535071
19.37541355
19.37547905
19.37554742
19.37561887
19.37569361
19.37577185
19.37585377
19.37593956
19.3760294
19.37612346
19.37622189
19.37632483
19.37643238
19.37654463
19.37666165
19.37678347
19.37691008
19.37704144
19.37717747
19.37731802
19.37746291
19.3776119
19.37776469
19.37792089
19.37808007
19.37824174
19.3784053
19.37857011
19.37873544
19.37890049
19.37906441
19.37922627
19.37938508
19.3795398
19.37968937
19.37983267
19.37996859
19.38009599
19.38021377
19.38032083
19.38041613
19.38049867
19.38056755
19.38062194
19.38066112
19.38068449
19.38069159
19.38068201
19.38065558
19.38061223
19.38055202
19.38047516
19.38038198
19.38027294
19.3801486
19.38000961
19.37985673
19.37969075
19.37951253
19.37932297
19.37912297
19.37891347
19.37869535
19.37846952
19.37823682
19.37799808
19.37775404
19.37750543
19.37725289
19.37699703
19.37673838
19.37647742
19.37621457
19.37595022
19.37568468
19.37541827
19.37515124
19.37488383
19.37478028
19.3748411
19.37490233
19.37496422
19.37502705
19.37509109
19.3751566
19.37522387
19.37529317
19.37536476
19.37543892
19.37551593
19.37559605
19.37567957
19.37576675
19.37585787
19.37595318
19.37605294
19.3761574
19.37626681
19.37638138
19.37650133
19.37662686
19.37675814
19.3768953
19.37703847
19.37718772
19.3773431
19.3775046
19.37767216
19.37784568
19.37802498
19.37820983
19.37839992
19.37859485
19.37879415
19.37899728
19.37920358
19.37941231
19.37962265
19.37983366
19.38004435
19.38025359
19.38046022
19.38066296
19.38086051
19.38105149
19.38123449
19.38140806
19.38157078
19.38172121
19.38185797
19.38197971
19.38208517
19.38217318
19.38224269
19.38229278
19.38232268
19.38233179
19.38231961
19.38228589
19.38223057
19.38215372
19.38205561
19.38193666
19.38179745
19.38163871
19.38146127
19.38126609
19.3810542
19.38082669
19.38058471
19.38032943
19.38006202
19.37978364
19.37949541
19.37919845
19.37889377
19.37858237
19.37826514
19.37794292
19.37761647
19.37728647
19.37695354
19.37661822
19.37628098
19.37594226
19.37560241
19.37526179
19.3749207
19.37478663
19.37486019
19.37493424
19.37500911
19.3750851
19.37516256
19.37524181
19.37532318
19.37540699
19.37549359
19.3755833
19.37567645
19.37577337
19.3758744
19.37597986
19.37609008
19.37620537
19.37632606
19.37645243
19.37658479
19.3767234
19.37686852
19.3770204
19.37717923
19.37734519
19.37751842
19.37769902
19.37788704
19.37808247
19.37828526
19.37849526
19.37871228
19.37893602
19.3791661
19.37940207
19.37964335
19.37988927
19.38013905
19.3803918
19.38064651
19.38090206
19.38115722
19.38141067
19.38166096
19.38190658
19.38214592
19.38237732
19.38259907
19.38280942
19.38300663
19.38318897
19.38335474
19.38350233
19.3836302
19.38373693
19.38382125
19.38388203
19.38391833
19.38392944
19.38391475
19.38387396
19.38380698
19.38371391
19.38359507
19.38345097
19.38328234
19.38309003
19.38287508
19.38263864
19.38238197
19.38210639
19.3818133
19.38150411
19.38118025
19.38084312
19.3804941
19.3801345
19.3797656
19.37938857
19.37900452
19.37861444
19.37821926
19.37781982
19.37741683
19.37701097
19.37660281
19.37619286
19.37578157
19.37536935
19.37495658
19.37479275
19.37487861
19.37496503
19.3750524
19.3751411
19.3752315
19.37532399
19.37541896
19.37551679
19.37561786
19.37572256
19.37583128
19.37594441
19.37606233
19.37618543
19.37631408
19.37644866
19.37658953
19.37673705
19.37689155
19.37705337
19.37722279
19.37740009
19.37758552
19.37777929
19.37798155
19.37819242
19.37841197
19.37864019
19.378877
19.37912226
19.37937572
19.37963705
19.37990581
19.38018146
19.38046334
19.38075067
19.38104252
19.38133786
19.38163552
19.3819342
19.38223244
19.38252871
19.38282132
19.3831085
19.38338836
19.38365896
19.3839183
19.38416433
19.38439502
19.38460834
19.3848023
19.38497501
19.38512466
19.3852496
19.38534832
19.38541951
19.38546207
19.38547516
19.38545806
19.38541044
19.38533218
19.3852234
19.38508447
19.38491602
19.38471886
19.38449402
19.38424272
19.3839663
19.38366623
19.38334407
19.38300146
19.38264006
19.38226153
19.38186752
19.38145963
19.38103943
19.38060838
19.38016786
19.37971916
19.37926345
19.37880182
19.37833522
19.37786452
19.37739048
19.37691378
19.376435
19.37595467
19.37547327
19.37499123
19.3747986
19.37489623
19.37499449
19.37509384
19.37519469
19.37529748
19.37540265
19.37551063
19.37562186
19.37573679
19.37585584
19.37597947
19.37610811
19.3762422
19.37638218
19.37652848
19.37668153
19.37684173
19.3770095
19.37718522
19.37736925
19.37756194
19.37776361
19.37797453
19.37819493
19.37842501
19.3786649
19.37891467
19.37917432
19.37944376
19.37972283
19.38001125
19.38030864
19.38061452
19.38092826
19.38124911
19.38157619
19.38190845
19.38224472
19.38258366
19.38292378
19.38326346
19.38360091
19.38393424
19.3842614
19.38458027
19.38488862
19.38518417
19.38546459
19.38572755
19.38597074
19.38619189
19.38638883
19.38655951
19.38670202
19.38681466
19.38689593
19.38694456
19.38695961
19.38694024
19.38688607
19.38679697
19.38667308
19.38651484
19.38632295
19.38609834
19.3858422
19.38555592
19.38524102
19.3848992
19.38453224
19.38414201
19.3837304
19.3832993
19.38285062
19.38238617
19.38190773
19.38141698
19.38091549
19.38040472
19.37988601
19.3793606
19.37882956
19.37829389
19.37775444
19.37721199
19.3766672
19.37612066
19.37557292
19.37502447
19.37480416
19.37491295
19.37502245
19.37513315
19.37524554
19.37536009
19.37547729
19.37559762
19.37572158
19.37584965
19.37598233
19.37612011
19.37626347
19.37641292
19.37656892
19.37673198
19.37690255
19.37708111
19.37726811
19.37746397
19.3776691
19.3778839
19.37810871
19.37834384
19.37858956
19.37884607
19.37911354
19.37939204
19.37968157
19.37998203
19.38029325
19.38061493
19.38094664
19.38128783
19.38163783
19.38199579
19.38236073
19.3827315
19.38310676
19.38348505
19.38386469
19.38424388
19.38462063
19.38499281
19.38535815
19.38571427
19.38605868
19.38638883
19.38670213
19.38699595
19.38726771
19.38751488
19.38773502
19.38792583
19.3880852
19.38821119
19.38830214
19.38835662
19.38837357
19.38835206
19.38829168
19.38819225
19.38805397
19.38787729
19.38766302
19.38741222
19.3871262
19.38680652
19.3864549
19.38607324
19.38566353
19.38522786
19.38476836
19.38428714
19.38378633
19.38326797
19.38273403
19.3821864
19.38162683
19.38105695
19.38047827
19.37989213
19.37929977
19.37870227
19.3781006
19.3774956
19.37688802
19.37627852
19.37566768
19.37505607
19.37480938
19.37492867
19.37504873
19.37517012
19.37529334
19.37541894
19.37554745
19.3756794
19.37581532
19.37595576
19.37610124
19.37625232
19.37640953
19.37657341
19.37674449
19.3769233
19.37711036
19.37730619
19.37751127
19.37772608
19.37795107
19.37818666
19.37843325
19.37869117
19.37896071
19.37924212
19.37953555
19.3798411
19.38015877
19.38048847
19.38082999
19.381183
19.38154706
19.38192156
19.38230575
19.38269872
19.38309939
19.38350649
19.38391858
19.38433402
19.38475101
19.38516754
19.38558143
19.38599035
19.38639181
19.38678318
19.38716173
19.38752465
19.38786908
19.38819215
19.38849099
19.38876284
19.38900499
19.38921492
19.38939029
19.38952898
19.38962913
19.3896892
19.38970799
19.38968451
19.38961827
19.3895091
19.38935721
19.38916311
19.38892768
19.38865209
19.38833781
19.38798654
19.3876002
19.38718085
19.38673072
19.3862521
19.38574733
19.38521876
19.3846687
19.38409942
19.38351309
19.38291176
19.38229738
19.38167173
19.38103647
19.38039307
19.37974288
19.3790871
19.37842677
19.37776282
19.37709607
19.37642724
19.37575696
19.37508584
19.37481424
19.37494328
19.37507318
19.37520449
19.3753378
19.37547368
19.37561271
19.37575545
19.3759025
19.37605444
19.37621184
19.37637529
19.37654538
19.37672269
19.37690779
19.37710127
19.37730367
19.37751556
19.37773747
19.37796992
19.37821339
19.37846835
19.37873521
19.37901435
19.37930609
19.37961067
19.37992829
19.38025905
19.38060295
19.38095989
19.38132966
19.3817119
19.38210613
19.3825117
19.3829278
19.38335345
19.38378747
19.38422851
19.38467499
19.38512516
19.38557705
19.3860285
19.38647714
19.38692044
19.3873557
19.38778008
19.38819061
19.38858424
19.38895786
19.38930834
19.3896326
19.3899276
19.39019042
19.39041831
19.39060872
19.39075934
19.39086817
19.39093352
19.39095408
19.39092878
19.39085708
19.39073882
19.3905742
19.3903638
19.39010857
19.3898098
19.38946906
19.38908823
19.38866938
19.38821478
19.38772683
19.38720803
19.38666093
19.38608808
19.38549199
19.38487513
19.38423984
19.38358836
19.38292279
19.38224508
19.38155701
19.38086018
19.38015604
19.37944589
19.37873086
19.37801195
19.37729003
19.37656588
19.37584019
19.3751136
19.37481871
19.37495671
19.37509563
19.37523607
19.37537864
19.37552396
19.37567265
19.37582532
19.37598259
19.37614509
19.37631344
19.37648826
19.37667019
19.37685983
19.37705782
19.37726477
19.37748128
19.37770793
19.37794532
19.37819398
19.37845444
19.3787272
19.37901271
19.37931137
19.37962351
19.37994942
19.3802893
19.38064326
19.3810113
19.38139332
19.3817891
19.38219826
19.38262028
19.38305447
19.38349998
19.38395576
19.38442054
19.38489288
19.38537111
19.38585333
19.38633745
19.38682114
19.38730188
19.38777696
19.38824348
19.38869838
19.38913849
19.38956054
19.38996118
19.39033707
19.39068487
19.39100133
19.39128331
19.39152786
19.39173223
19.39189395
19.39201085
19.39208111
19.39210336
19.3920764
19.39199969
19.39187304
19.39169667
19.39147121
19.39119768
19.39087746
19.39051227
19.39010411
19.38965521
19.38916803
19.38864514
19.38808922
19.38750302
19.38688928
19.3862507
19.38558991
19.38490944
19.3842117
19.38349893
19.38277322
19.38203646
19.38129038
19.38053653
19.37977629
19.37901087
19.37824133
19.37746861
19.37669352
19.37591681
19.37513915
19.37482275
19.37496887
19.37511595
19.37526465
19.37541561
19.37556948
19.37572691
19.37588856
19.37605509
19.37622715
19.37640541
19.37659053
19.37678317
19.37698399
19.37719365
19.37741279
19.37764207
19.3778821
19.3781335
19.37839685
19.37867271
19.3789616
19.379264
19.37958034
19.37991099
19.38025623
19.38061629
19.38099128
19.38138122
19.38178599
19.38220537
19.38263895
19.3830862
19.38354639
19.38401861
19.38450175
19.38499448
19.38549527
19.38600235
19.38651373
19.38702716
19.38754019
19.38805016
19.38855417
19.38904916
19.38953187
19.38999895
19.39044691
19.3908722
19.39127126
19.39164055
19.3919766
19.39227609
19.39253587
19.392753
19.39292487
19.39304917
19.39312396
19.39314777
19.39311933
19.39303808
19.39290381
19.39271674
19.39247757
19.39218737
19.39184763
19.39146016
19.39102711
19.39055085
19.390034
19.38947929
19.38888959
19.38826781
19.38761686
19.38693962
19.38623889
19.38551735
19.38477756
19.38402189
19.38325256
19.38247158
19.38168078
19.3808818
19.38007609
19.37926493
19.37844945
19.37763063
19.37680933
19.37598633
19.37516233
19.37482634
19.37497967
19.37513402
19.37529006
19.37544847
19.37560994
19.37577515
19.37594479
19.37611955
19.37630011
19.37648718
19.37668145
19.37688362
19.37709438
19.37731441
19.37754441
19.37778505
19.37803697
19.37830084
19.37857726
19.37886681
19.37917006
19.3794875
19.37981958
19.38016669
19.38052915
19.38090718
19.3813009
19.38171034
19.38213538
19.38257579
19.38303114
19.38350088
19.38398424
19.38448028
19.38498782
19.3855055
19.38603168
19.38656452
19.38710192
19.38764154
19.3881808
19.38871688
19.38924676
19.3897672
19.39027481
19.39076602
19.39123717
19.39168453
19.39210435
19.39249289
19.39284652
19.3931617
19.39343514
19.39366373
19.39384472
19.39397567
19.39405454
19.39407977
19.39405005
19.39396475
19.39382367
19.39362705
19.39337562
19.39307052
19.39271332
19.39230593
19.39185062
19.3913499
19.39080651
19.39022336
19.38960347
19.38894989
19.3882657
19.38755393
19.38681754
19.38605933
19.385282
19.38448806
19.38367981
19.38285939
19.3820287
19.38118948
19.38034323
19.37949131
19.37863488
19.37777498
19.3769125
19.37604826
19.37518298
19.37482946
19.37498906
19.37514972
19.37531214
19.37547703
19.37564511
19.37581707
19.37599365
19.37617556
19.37636352
19.37655825
19.37676047
19.37697092
19.37719031
19.37741937
19.3776588
19.37790931
19.37817158
19.37844629
19.37873407
19.37903554
19.37935127
19.37968178
19.38002756
19.380389
19.38076644
19.3811601
19.38157013
19.38199654
19.38243923
19.38289794
19.38337226
19.38386158
19.38436514
19.38488193
19.38541076
19.38595017
19.3864985
19.38705381
19.38761392
19.3881764
19.38873854
19.38929743
19.38984991
19.3903926
19.39092195
19.39143426
19.39192569
19.39239236
19.39283035
19.39323575
19.39360475
19.39393369
19.39421909
19.39445774
19.39464673
19.39478352
19.39486598
19.39489248
19.39486164
19.39477283
19.39462581
19.39442086
19.39415872
19.3938406
19.39346814
19.39304335
19.39256859
19.3920465
19.39147994
19.39087195
19.39022568
19.38954434
19.38883114
19.38808924
19.38732172
19.38653153
19.38572146
19.38489414
19.38405197
19.38319716
19.38233172
19.38145743
19.38057587
19.37968844
19.37879635
19.37790067
19.37700234
19.37610218
19.37520096
19.37483209
19.37499698
19.37516296
19.37533075
19.37550111
19.37567475
19.37585241
19.37603484
19.37622278
19.37641697
19.37661815
19.37682709
19.37704452
19.3772712
19.37750786
19.37775525
19.37801409
19.37828508
19.37856893
19.3788663
19.37917781
19.37950407
19.37984563
19.38020296
19.38057649
19.38096656
19.38137342
19.38179722
19.38223797
19.38269556
19.38316973
19.38366006
19.38416594
19.38468656
19.38522089
19.3857677
19.38632551
19.38689256
19.38746688
19.38804621
19.38862802
19.38920954
19.38978774
19.39035936
19.39092089
19.39146867
19.39199886
19.39250749
19.39299054
19.39344393
19.39386363
19.39424569
19.39458631
19.39488187
19.39512906
19.39532485
19.39546661
19.39555213
19.39557973
19.39554796
19.39545618
19.39530414
19.39509213
19.39482093
19.39449179
19.3941064
19.39366687
19.39317563
19.39263543
19.39204925
19.39142022
19.39075163
19.39004679
19.38930903
19.38854163
19.38774777
19.38693052
19.38609277
19.38523722
19.38436636
19.3834825
19.38258768
19.38168376
19.38077237
19.37985494
19.37893272
19.37800683
19.37707821
19.37614772
19.37521615
19.37483421
19.37500337
19.37517364
19.37534579
19.37552055
19.37569869
19.37588096
19.37606811
19.37626092
19.37646014
19.37666654
19.37688089
19.37710396
19.37733652
19.37757933
19.37783315
19.37809871
19.37837676
19.37866799
19.3789731
19.37929274
19.37962751
19.37997798
19.38034465
19.38072795
19.38112824
19.38154578
19.3819807
19.38243304
19.38290268
19.38338936
19.38389265
19.38441192
19.38494634
19.38549487
19.38605625
19.38662893
19.38721115
19.38780087
19.38839576
19.38899324
19.38959047
19.39018432
19.39077145
19.39134826
19.39191099
19.39245569
19.39297828
19.39347461
19.39394051
19.39437183
19.3947645
19.39511459
19.39541842
19.39567255
19.39587387
19.39601968
19.3961077
19.39613619
19.39610369
19.3960095
19.3958534
19.39563567
19.39535712
19.39501904
19.39462317
19.39417168
19.39366709
19.39311221
19.39251011
19.39186403
19.39117734
19.39045345
19.38969579
19.38890773
19.38809254
19.38725338
19.3863932
19.38551479
19.38462072
19.38371333
19.38279474
19.38186684
19.38093131
19.3799896
19.37904302
19.37809269
19.37713957
19.37618455
19.37522843
19.37483582
19.3750082
19.37518172
19.37535714
19.37553524
19.37571677
19.37590252
19.37609324
19.37628973
19.37649275
19.37670309
19.37692154
19.37714888
19.37738588
19.37763333
19.377892
19.37816265
19.37844602
19.37874284
19.3790538
19.37937958
19.37972078
19.38007799
19.38045172
19.38084242
19.38125043
19.38167603
19.38211937
19.38258048
19.38305923
19.38355538
19.38406847
19.38459786
19.38514274
19.38570202
19.38627441
19.38685836
19.38745206
19.38805344
19.38866012
19.38926947
19.38987859
19.39048431
19.39108319
19.3916716
19.39224566
19.39280135
19.39333453
19.39384094
19.39431634
19.39475647
19.39515718
19.39551448
19.39582458
19.39608398
19.39628951
19.39643839
19.39652832
19.3965575
19.39652444
19.39642844
19.39626926
19.3960472
19.39576308
19.39541822
19.39501441
19.39455385
19.39403913
19.39347313
19.39285897
19.39219996
19.39149956
19.39076124
19.3899885
19.38918479
19.38835344
19.38749768
19.38662052
19.38572481
19.38481317
19.38388797
19.38295139
19.38200534
19.38105154
19.38009148
19.37912646
19.37815763
19.37718599
19.37621241
19.37523772
19.3748369
19.37501144
19.37518713
19.37536476
19.37554508
19.3757289
19.37591697
19.37611009
19.37630904
19.37651461
19.37672759
19.37694878
19.37717897
19.37741896
19.37766952
19.37793145
19.3782055
19.37849244
19.37879301
19.37910789
19.37943778
19.3797833
19.38014503
19.38052349
19.38091914
19.38133234
19.38176335
19.38221233
19.38267931
19.38316418
19.38366668
19.38418634
19.38472253
19.38527441
19.38584091
19.38642069
19.38701221
19.38761362
19.38822282
19.38883741
19.38945474
19.39007185
19.39068553
19.39129231
19.3918885
19.39247017
19.39303326
19.39357355
19.39408674
19.39456851
19.39501457
19.3954207
19.39578284
19.39609716
19.3963601
19.39656846
19.39671942
19.39681062
19.39684027
19.39680684
19.39670962
19.39654838
19.39632341
19.39603555
19.39568613
19.39527699
19.39481035
19.39428882
19.39371534
19.39309308
19.3924254
19.39171578
19.39096777
19.39018491
19.38937068
19.3885285
19.38766159
19.38677304
19.38586572
19.38494227
19.38400513
19.38305647
19.38209825
19.38113219
19.38015981
19.37918243
19.37820119
19.37721712
19.3762311
19.37524395
19.37483743
19.37501306
19.37518985
19.37536857
19.37555002
19.37573497
19.37592422
19.37611853
19.37631872
19.37652557
19.37673988
19.37696244
19.37719407
19.37743555
19.37768767
19.37795123
19.378227
19.37851573
19.37881817
19.37913502
19.37946697
19.37981465
19.38017865
19.38055949
19.38095763
19.38137342
19.38180715
19.38225896
19.38272889
19.38321683
19.38372251
19.38424547
19.38478508
19.38534048
19.38591059
19.38649409
19.3870894
19.38769468
19.38830781
19.38892638
19.38954771
19.39016883
19.39078651
19.39139726
19.39199736
19.39258286
19.39314966
19.39369352
19.39421012
19.3946951
19.39514413
19.39555297
19.39591755
19.39623399
19.39649872
19.3967085
19.3968605
19.39695235
19.39698223
19.39694862
19.39685079
19.39668851
19.39646208
19.39617234
19.39582064
19.39540881
19.39493911
19.39441417
19.39383694
19.39321061
19.39253856
19.39182432
19.39107144
19.39028349
19.38946399
19.38861636
19.38774386
19.38684959
19.38593643
19.38500707
19.38406393
19.38310921
19.38214488
19.38117267
19.3801941
19.37921051
19.37822306
19.37723274
19.37624048
19.37524707
19.37483743
19.37501306
19.37518985
19.37536857
19.37555002
19.37573497
19.37592422
19.37611853
19.37631872
19.37652557
19.37673988
19.37696244
19.37719407
19.37743555
19.37768767
19.37795123
19.378227
19.37851573
19.37881817
19.37913502
19.37946697
19.37981465
19.38017865
19.38055949
19.38095763
19.38137342
19.38180715
19.38225896
19.38272889
19.38321683
19.38372251
19.38424547
19.38478508
19.38534048
19.38591059
19.38649409
19.3870894
19.38769468
19.38830781
19.38892638
19.38954771
19.39016883
19.39078651
19.39139726
19.39199736
19.39258286
19.39314966
19.39369352
19.39421012
19.3946951
19.39514413
19.39555297
19.39591755
19.39623399
19.39649872
19.3967085
19.3968605
19.39695235
19.39698223
19.39694862
19.39685079
19.39668851
19.39646208
19.39617234
19.39582064
19.39540881
19.39493911
19.39441417
19.39383694
19.39321061
19.39253856
19.39182432
19.39107144
19.39028349
19.38946399
19.38861636
19.38774386
19.38684958
19.38593643
19.38500707
19.38406393
19.38310921
19.38214488
19.38117267
19.3801941
19.37921051
19.37822305
19.37723274
19.37624048
19.37524707
19.3748369
19.37501144
19.37518713
19.37536476
19.37554508
19.3757289
19.37591697
19.37611009
19.37630903
19.37651461
19.37672759
19.37694878
19.37717897
19.37741896
19.37766952
19.37793145
19.3782055
19.37849244
19.378793
19.37910789
19.37943778
19.3797833
19.38014503
19.38052349
19.38091914
19.38133234
19.38176335
19.38221233
19.38267931
19.38316418
19.38366668
19.38418634
19.38472253
19.38527441
19.38584091
19.38642069
19.38701221
19.38761362
19.38822282
19.38883741
19.38945474
19.39007185
19.39068553
19.39129231
19.3918885
19.39247017
19.39303326
19.39357355
19.39408674
19.39456851
19.39501457
19.3954207
19.39578284
19.39609716
19.3963601
19.39656846
19.39671942
19.39681062
19.39684027
19.39680684
19.39670962
19.39654838
19.39632341
19.39603555
19.39568613
19.39527699
19.39481035
19.39428882
19.39371534
19.39309308
19.3924254
19.39171578
19.39096777
19.3901849
19.38937068
19.38852849
19.38766159
19.38677304
19.38586571
19.38494227
19.38400513
19.38305647
19.38209825
19.38113219
19.38015981
19.37918243
19.37820119
19.37721712
19.3762311
19.37524395
19.37483582
19.3750082
19.37518172
19.37535714
19.37553524
19.37571677
19.37590252
19.37609324
19.37628973
19.37649275
19.37670309
19.37692154
19.37714887
19.37738588
19.37763333
19.377892
19.37816265
19.37844602
19.37874284
19.3790538
19.37937957
19.37972078
19.38007799
19.38045172
19.38084242
19.38125043
19.38167603
19.38211937
19.38258047
19.38305923
19.38355538
19.38406847
19.38459786
19.38514273
19.38570202
19.38627441
19.38685836
19.38745206
19.38805344
19.38866012
19.38926947
19.38987859
19.39048431
19.3910832
19.3916716
19.39224566
19.39280135
19.39333453
19.39384095
19.39431634
19.39475647
19.39515718
19.39551448
19.39582458
19.39608398
19.39628951
19.39643839
19.39652832
19.3965575
19.39652444
19.39642843
19.39626926
19.3960472
19.39576307
19.39541821
19.3950144
19.39455385
19.39403913
19.39347312
19.39285896
19.39219996
19.39149955
19.39076123
19.38998849
19.38918478
19.38835344
19.38749768
19.38662052
19.38572481
19.38481316
19.38388797
19.38295139
19.38200534
19.38105154
19.38009148
19.37912646
19.37815763
19.37718599
19.37621241
19.37523772
19.37483421
19.37500337
19.37517364
19.37534579
19.37552055
19.37569869
19.37588095
19.37606811
19.37626091
19.37646013
19.37666654
19.37688089
19.37710396
19.37733652
19.37757933
19.37783315
19.37809871
19.37837675
19.37866799
19.3789731
19.37929273
19.37962751
19.37997798
19.38034465
19.38072795
19.38112824
19.38154578
19.3819807
19.38243304
19.38290268
19.38338936
19.38389265
19.38441191
19.38494634
19.38549487
19.38605624
19.38662893
19.38721115
19.38780087
19.38839576
19.38899324
19.38959047
19.39018432
19.39077145
19.39134827
19.39191099
19.39245569
19.39297828
19.39347461
19.39394052
19.39437183
19.3947645
19.3951146
19.39541842
19.39567255
19.39587387
19.39601968
19.3961077
19.39613619
19.39610369
19.3960095
19.3958534
19.39563567
19.39535712
19.39501904
19.39462317
19.39417168
19.39366709
19.39311221
19.39251011
19.39186403
19.39117733
19.39045345
19.38969578
19.38890772
19.38809254
19.38725337
19.38639319
19.38551479
19.38462072
19.38371333
19.38279474
19.38186684
19.3809313
19.3799896
19.37904302
19.37809268
19.37713957
19.37618455
19.37522843
19.37483209
19.37499698
19.37516296
19.37533075
19.37550111
19.37567475
19.37585241
19.37603484
19.37622278
19.37641697
19.37661815
19.37682709
19.37704452
19.3772712
19.37750786
19.37775525
19.37801409
19.37828508
19.37856893
19.3788663
19.37917781
19.37950407
19.37984563
19.38020296
19.38057649
19.38096656
19.38137342
19.38179722
19.38223796
19.38269556
19.38316973
19.38366006
19.38416594
19.38468655
19.38522089
19.3857677
19.38632551
19.38689256
19.38746688
19.38804621
19.38862802
19.38920954
19.38978774
19.39035936
19.39092089
19.39146867
19.39199886
19.39250749
19.39299054
19.39344393
19.39386363
19.39424569
19.39458631
19.39488187
19.39512906
19.39532485
19.39546661
19.39555213
19.39557973
19.39554796
19.39545618
19.39530414
19.39509213
19.39482093
19.39449178
19.3941064
19.39366686
19.39317563
19.39263543
19.39204924
19.39142022
19.39075162
19.39004678
19.38930902
19.38854162
19.38774777
19.38693051
19.38609276
19.38523721
19.38436636
19.38348249
19.38258768
19.38168376
19.38077236
19.37985493
19.37893272
19.37800683
19.37707821
19.37614772
19.37521614
19.37482946
19.37498906
19.37514972
19.37531214
19.37547703
19.37564511
19.37581707
19.37599365
19.37617556
19.37636351
19.37655824
19.37676047
19.37697092
19.37719031
19.37741937
19.3776588
19.37790931
19.37817158
19.37844629
19.37873407
19.37903554
19.37935127
19.37968178
19.38002756
19.380389
19.38076643
19.3811601
19.38157013
19.38199654
19.38243923
19.38289794
19.38337226
19.38386158
19.38436514
19.38488193
19.38541076
19.38595017
19.3864985
19.38705381
19.38761392
19.3881764
19.38873854
19.38929743
19.38984991
19.3903926
19.39092195
19.39143426
19.39192569
19.39239237
19.39283035
19.39323575
19.39360475
19.39393369
19.39421909
19.39445774
19.39464673
19.39478352
19.39486598
19.39489248
19.39486164
19.39477282
19.39462581
19.39442086
19.39415872
19.3938406
19.39346814
19.39304335
19.39256859
19.39204649
19.39147993
19.39087194
19.39022567
19.38954433
19.38883113
19.38808923
19.38732171
19.38653152
19.38572145
19.38489413
19.38405196
19.38319716
19.38233172
19.38145743
19.38057587
19.37968844
19.37879635
19.37790067
19.37700234
19.37610218
19.37520096
19.37482634
19.37497967
19.37513402
19.37529006
19.37544847
19.37560994
19.37577515
19.37594479
19.37611955
19.37630011
19.37648718
19.37668145
19.37688362
19.37709438
19.37731441
19.37754441
19.37778504
19.37803697
19.37830084
19.37857726
19.37886681
19.37917006
19.3794875
19.37981958
19.38016669
19.38052915
19.38090718
19.3813009
19.38171034
19.38213538
19.38257578
19.38303114
19.38350087
19.38398424
19.38448028
19.38498782
19.3855055
19.38603168
19.38656452
19.38710192
19.38764154
19.3881808
19.38871688
19.38924676
19.38976721
19.39027481
19.39076602
19.39123717
19.39168453
19.39210435
19.3924929
19.39284652
19.39316171
19.39343514
19.39366373
19.39384472
19.39397567
19.39405454
19.39407977
19.39405005
19.39396475
19.39382366
19.39362705
19.39337562
19.39307052
19.39271331
19.39230593
19.39185061
19.39134989
19.3908065
19.39022336
19.38960346
19.38894988
19.38826569
19.38755393
19.38681753
19.38605932
19.38528199
19.38448805
19.3836798
19.38285938
19.3820287
19.38118947
19.38034323
19.37949131
19.37863488
19.37777498
19.3769125
19.37604826
19.37518298
19.37482275
19.37496887
19.37511595
19.37526465
19.37541561
19.37556948
19.37572691
19.37588856
19.37605509
19.37622715
19.37640541
19.37659053
19.37678317
19.37698399
19.37719365
19.37741279
19.37764207