/*--------------------------------*- C++ -*----------------------------------*\
| =========                 |                                                 |
| \\      /  F ield         | OpenFOAM: The Open Source CFD Toolbox           |
|  \\    /   O peration     | Version:  2312                                  |
|   \\  /    A nd           | Website:  www.openfoam.com                      |
|    \\/     M anipulation  |                                                 |
\*---------------------------------------------------------------------------*/
FoamFile
{
    version     2.0;
    format      ascii;
    arch        "LSB;label=32;scalar=64";
    class       surfaceVectorField;
    location    "0.02/beam";
    object      Gamma;
}
// * * * * * * * * * * * * * * * * * * * * * * * * * * * * * * * * * * * * * //

dimensions      [0 0 0 0 0 0 0];

oriented        oriented;

internalField   nonuniform List<vector> 
59
(
(5.170605588e-08 9.46293493e-20 1.117741464e-12)
(5.164229022e-08 -1.020422615e-20 1.901380729e-12)
(5.153613181e-08 -7.795277522e-20 3.225967116e-12)
(5.138775805e-08 -1.147236875e-19 5.115167901e-12)
(5.119741764e-08 -1.271609975e-19 7.593199438e-12)
(5.096542988e-08 -1.217562596e-19 1.067547765e-11)
(5.0692186e-08 -1.043980502e-19 1.43580092e-11)
(5.037814765e-08 -8.011236528e-20 1.860512839e-11)
(5.002384795e-08 -5.295056839e-20 2.333302108e-11)
(4.962989131e-08 -2.598415746e-20 2.839298788e-11)
(4.919695273e-08 -1.372832946e-21 3.355367643e-11)
(4.872577941e-08 1.952330237e-20 3.848101818e-11)
(4.821718846e-08 3.600754405e-20 4.271974194e-11)
(4.76720694e-08 4.790449346e-20 4.567338796e-11)
(4.709138213e-08 5.542311291e-20 4.659019909e-11)
(4.647615826e-08 5.903333427e-20 4.455153673e-11)
(4.582750068e-08 5.935982631e-20 3.847002891e-11)
(4.514658292e-08 5.709580544e-20 2.709743972e-11)
(4.44346504e-08 5.29360365e-20 9.048161421e-12)
(4.369301987e-08 4.752786467e-20 -1.715873783e-11)
(4.292307887e-08 4.14396486e-20 -5.303135468e-11)
(4.212628668e-08 3.51408011e-20 -1.000076093e-10)
(4.130426823e-08 2.899377659e-20 -1.593166312e-10)
(4.04583429e-08 2.325248332e-20 -2.318421618e-10)
(3.959056549e-08 1.807643199e-20 -3.178209005e-10)
(3.870228915e-08 1.353265682e-20 -4.167037278e-10)
(3.779573121e-08 9.618770097e-21 -5.266869144e-10)
(3.68723696e-08 6.269897879e-21 -6.445306175e-10)
(3.593458064e-08 3.381898392e-21 -7.649625886e-10)
(3.498397128e-08 8.190456526e-22 -8.804631501e-10)
(3.40230728e-08 -1.761344635e-21 -9.806178225e-10)
(3.305362539e-08 -4.705511106e-21 -1.051908634e-09)
(3.207831223e-08 -8.149848051e-21 -1.077185561e-09)
(3.109901114e-08 -1.220661295e-20 -1.035542304e-09)
(3.011855387e-08 -1.694276082e-20 -9.022063261e-10)
(2.913895969e-08 -2.237137759e-20 -6.486262549e-10)
(2.816320577e-08 -2.842653346e-20 -2.432378712e-10)
(2.719345815e-08 -3.495768978e-20 3.480544423e-10)
(2.623283391e-08 -4.170617808e-20 1.159620263e-09)
(2.528364851e-08 -4.830875073e-20 2.224997249e-09)
(2.43491507e-08 -5.42839506e-20 3.572417076e-09)
(2.343180383e-08 -5.90507482e-20 5.222827885e-09)
(2.2534973e-08 -6.193630804e-20 7.182513719e-09)
(2.166126301e-08 -6.221679406e-20 9.440048466e-09)
(2.081413553e-08 -5.916204139e-20 1.195561485e-08)
(1.999632881e-08 -5.210375101e-20 1.465686083e-08)
(1.921138915e-08 -4.0529602e-20 1.742526634e-08)
(1.846220243e-08 -2.417932569e-20 2.009121706e-08)
(1.775242997e-08 -3.192764728e-21 2.241912142e-08)
(1.708519015e-08 2.177892017e-20 2.410260091e-08)
(1.646438674e-08 4.938930093e-20 2.475219675e-08)
(1.589357423e-08 7.750143743e-20 2.389243687e-08)
(1.537715288e-08 1.030229016e-19 2.095893102e-08)
(1.491940815e-08 1.218855791e-19 1.530020408e-08)
(1.452547327e-08 1.290067765e-19 6.194580562e-09)
(1.420044171e-08 1.184362107e-19 -7.139066235e-09)
(1.394985305e-08 8.361104004e-20 -2.549057295e-08)
(1.377862979e-08 1.779337076e-20 -4.963356085e-08)
(1.369069613e-08 -8.516317923e-20 -8.022425069e-08)
)
;

boundaryField
{
    left
    {
        type            calculated;
        value           uniform (-5.172736817e-08 -4.517246023e-14 -9.036919255e-13);
    }
    right
    {
        type            calculated;
        value           uniform (1.36873668e-08 -4.516734829e-14 -1.177567181e-07);
    }
    beam
    {
        type            empty;
        value           nonuniform List<vector> 0();
    }
}


// ************************************************************************* //
