/*--------------------------------*- C++ -*----------------------------------*\
| =========                 |                                                 |
| \\      /  F ield         | OpenFOAM: The Open Source CFD Toolbox           |
|  \\    /   O peration     | Version:  2312                                  |
|   \\  /    A nd           | Website:  www.openfoam.com                      |
|    \\/     M anipulation  |                                                 |
\*---------------------------------------------------------------------------*/
FoamFile
{
    version     2.0;
    format      ascii;
    arch        "LSB;label=32;scalar=64";
    class       surfaceVectorField;
    location    "0.02/beam";
    object      K;
}
// * * * * * * * * * * * * * * * * * * * * * * * * * * * * * * * * * * * * * //

dimensions      [0 -1 0 0 0 0 0];

oriented        oriented;

internalField   nonuniform List<vector> 
59
(
(4.832589702e-25 1.812906578e-08 -1.857307423e-15)
(1.10891447e-24 4.164401127e-08 -2.323645089e-15)
(1.850645504e-24 7.667136828e-08 -1.834978876e-15)
(2.492571836e-24 1.291915986e-07 -7.680132609e-16)
(2.782303502e-24 2.056709449e-07 5.711367634e-16)
(2.544962665e-24 3.126632003e-07 1.949065821e-15)
(1.452168036e-24 4.568646452e-07 3.200892365e-15)
(-4.128464914e-25 6.447051197e-07 4.222143951e-15)
(-3.076665589e-24 8.819818729e-07 4.958586584e-15)
(-6.680706899e-24 1.173188817e-06 5.395405846e-15)
(-1.070025158e-23 1.520727085e-06 5.546736486e-15)
(-1.519257248e-23 1.92386295e-06 5.446190186e-15)
(-1.906277362e-23 2.377498261e-06 5.138758485e-15)
(-2.236337168e-23 2.870712434e-06 4.67425626e-15)
(-2.439950569e-23 3.385124977e-06 4.102309666e-15)
(-2.518913187e-23 3.893110221e-06 3.468784998e-15)
(-2.453154803e-23 4.355940943e-06 2.813488466e-15)
(-2.274866259e-23 4.721963223e-06 2.168930908e-15)
(-1.999868394e-23 4.924945954e-06 1.559940277e-15)
(-1.719238245e-23 4.882792269e-06 1.003915904e-15)
(-1.472804948e-23 4.496861179e-06 5.115284688e-16)
(-1.296832134e-23 3.652236044e-06 8.771582111e-17)
(-1.289967697e-23 2.219173695e-06 -2.672099423e-16)
(-1.504045856e-23 5.623407864e-08 -5.563479438e-16)
(-1.973847783e-23 -2.984168219e-06 -7.85062875e-16)
(-2.714211098e-23 -7.047925786e-06 -9.599843439e-16)
(-3.720728276e-23 -1.226791867e-05 -1.088098642e-15)
(-4.930534552e-23 -1.874912153e-05 -1.176020739e-15)
(-6.287099029e-23 -2.654941026e-05 -1.229427684e-15)
(-4.851465794e-22 -3.565587503e-05 -1.252672346e-15)
(-1.036824602e-21 -4.595636182e-05 -1.247463005e-15)
(-1.052146995e-21 -5.720627512e-05 -1.211683523e-15)
(-1.067848182e-21 -6.899129804e-05 -1.140549802e-15)
(-1.085692638e-21 -8.068650179e-05 -1.027904938e-15)
(-1.105285933e-21 -9.141415193e-05 -8.665976402e-16)
(-1.127764407e-21 -0.000100001396 -6.490345941e-16)
(-1.154316303e-21 -0.0001049426611 -3.679137706e-16)
(-1.188553518e-21 -0.0001043689662 -1.713131427e-17)
(-1.238192894e-21 -9.603237362e-05 4.071524699e-16)
(-1.31583423e-21 -7.730907083e-05 9.053353179e-16)
(-1.436985911e-21 -4.523330743e-05 1.473140119e-15)
(-1.624617617e-21 3.43293716e-06 2.100409269e-15)
(-1.911127092e-21 7.207852829e-05 2.77004528e-15)
(-2.338835494e-21 0.0001640640132 3.45722009e-15)
(-2.963465906e-21 0.0002824665226 4.129057313e-15)
(-3.855457163e-21 0.0004297425908 4.744939273e-15)
(-5.077304251e-21 0.0006072926199 5.257712016e-15)
(-6.687356588e-21 0.0008149225939 5.615943194e-15)
(-8.712788075e-21 0.001050196169 5.767530836e-15)
(-1.112751748e-20 0.001307677755 5.664747456e-15)
(-1.381253947e-20 0.001578080905 5.270917551e-15)
(-1.653521065e-20 0.001847332449 4.568640852e-15)
(-1.890904124e-20 0.002095604219 3.569456081e-15)
(-2.043995341e-20 0.002296338881 2.324529926e-15)
(-2.05427917e-20 0.00241537922 9.356742772e-16)
(-1.870912524e-20 0.002410250384 -4.342348252e-16)
(-1.4732067e-20 0.002229782327 -1.553060855e-15)
(-9.055861287e-21 0.001814150925 -2.115044004e-15)
(-3.188899932e-21 0.001095617156 -1.743098771e-15)
)
;

boundaryField
{
    left
    {
        type            calculated;
        value           uniform (-2.795705666e-31 -9.6296495e-35 9.634775809e-38);
    }
    right
    {
        type            calculated;
        value           uniform (-1.209585687e-32 1.203705981e-35 -2.444073041e-34);
    }
    beam
    {
        type            empty;
        value           nonuniform List<vector> 0();
    }
}


// ************************************************************************* //
