/*--------------------------------*- C++ -*----------------------------------*\
| =========                 |                                                 |
| \\      /  F ield         | OpenFOAM: The Open Source CFD Toolbox           |
|  \\    /   O peration     | Version:  2312                                  |
|   \\  /    A nd           | Website:  www.openfoam.com                      |
|    \\/     M anipulation  |                                                 |
\*---------------------------------------------------------------------------*/
FoamFile
{
    version     2.0;
    format      ascii;
    arch        "LSB;label=32;scalar=64";
    class       surfaceVectorField;
    location    "0.02/beam";
    object      M;
}
// * * * * * * * * * * * * * * * * * * * * * * * * * * * * * * * * * * * * * //

dimensions      [1 2 -2 0 0 0 0];

oriented        oriented;

internalField   nonuniform List<vector> 
59
(
(5.336546507e-25 1.093519867e-11 -1.120301774e-18)
(6.914616472e-25 2.511908458e-11 -1.401590044e-18)
(6.034368728e-25 4.624709595e-11 -1.106833304e-18)
(3.840955942e-25 7.792656357e-11 -4.632544015e-19)
(1.284968523e-25 1.240578346e-10 3.445024094e-19)
(-9.095804296e-26 1.885940652e-10 1.175650295e-18)
(-2.253968098e-25 2.755743579e-10 1.930735039e-18)
(-2.496188023e-25 3.888771023e-10 2.546740346e-18)
(-1.605814759e-25 5.31999118e-10 2.990953051e-18)
(2.542767628e-26 7.076510698e-10 3.254437318e-18)
(2.769143093e-25 9.172812874e-10 3.345719041e-18)
(5.52462054e-25 1.160447197e-09 3.28507231e-18)
(8.069291714e-25 1.434073666e-09 3.099635376e-18)
(9.978881918e-25 1.73157355e-09 2.819455838e-18)
(1.091760346e-24 2.041859994e-09 2.474467435e-18)
(1.068855774e-24 2.348269582e-09 2.092335976e-18)
(9.266799406e-25 2.627442594e-09 1.697071878e-18)
(6.810424314e-25 2.848222108e-09 1.308285045e-18)
(3.646305285e-25 2.97065845e-09 9.409511226e-19)
(2.306507612e-26 2.945231937e-09 6.055648598e-19)
(-2.911887234e-25 2.712443707e-09 3.085623211e-19)
(-5.263051499e-25 2.202977651e-09 5.292155214e-20)
(-6.3933568e-25 1.338574504e-09 -1.611696421e-19)
(-6.041105168e-25 3.391960896e-11 -3.355810969e-19)
(-4.178499806e-25 -1.800008491e-09 -4.73549228e-19)
(-1.056568699e-25 -4.251210163e-09 -5.790734253e-19)
(2.778188206e-25 -7.399836793e-09 -6.563681807e-19)
(6.496360084e-25 -1.130920762e-08 -7.094239125e-19)
(9.032608619e-25 -1.601423258e-08 -7.41665138e-19)
(9.942956163e-25 -2.150712464e-08 -7.557174018e-19)
(8.885612665e-25 -2.772023406e-08 -7.526107273e-19)
(3.886631546e-25 -3.450602427e-08 -7.31067847e-19)
(-7.239058178e-25 -4.16145851e-08 -6.882016295e-19)
(-2.580840468e-24 -4.866896827e-08 -6.202961624e-19)
(-5.295621836e-24 -5.513973665e-08 -5.230348592e-19)
(-8.95544886e-24 -6.031944207e-08 -3.918334939e-19)
(-1.361651667e-23 -6.329994395e-08 -2.222823917e-19)
(-1.930773176e-23 -6.295389927e-08 -1.069334636e-20)
(-2.605116616e-23 -5.792538331e-08 2.452574458e-19)
(-3.39129301e-23 -4.66317492e-08 5.458189432e-19)
(-4.310299815e-23 -2.728409777e-08 8.88421482e-19)
(-5.414777022e-23 2.070699634e-09 1.266949305e-18)
(-6.816147967e-23 4.347675917e-08 1.671101136e-18)
(-8.724185324e-23 9.896111586e-08 2.085912625e-18)
(-1.149921651e-22 1.703798519e-07 2.491563811e-18)
(-1.571468274e-22 2.592147144e-07 2.863563155e-18)
(-2.222137886e-22 3.663104062e-07 3.173472878e-18)
(-3.219639304e-22 4.915498997e-07 3.39026904e-18)
(-4.714503865e-22 6.334636267e-07 3.482516059e-18)
(-6.881389849e-22 7.887729141e-07 3.42140664e-18)
(-9.895318531e-22 9.518763089e-07 3.184786606e-18)
(-1.388625297e-21 1.11428507e-06 2.762111836e-18)
(-1.886505043e-21 1.264039126e-06 2.160273928e-18)
(-2.461665008e-21 1.385119465e-06 1.410044347e-18)
(-3.056204115e-21 1.45692293e-06 5.727167675e-19)
(-3.560022244e-21 1.453829288e-06 -2.536107425e-19)
(-3.795817609e-21 1.344973483e-06 -9.290932373e-19)
(-3.509286442e-21 1.09427044e-06 -1.269507086e-18)
(-2.371416331e-21 6.608609296e-07 -1.047633377e-18)
)
;

boundaryField
{
    left
    {
        type            calculated;
        value           uniform (-3.372655448e-34 -5.808469763e-38 -9.596432971e-41);
    }
    right
    {
        type            calculated;
        value           uniform (-1.459221305e-35 7.260585958e-39 -1.334822775e-37);
    }
    beam
    {
        type            empty;
        value           nonuniform List<vector> 0();
    }
}


// ************************************************************************* //
