/*--------------------------------*- C++ -*----------------------------------*\
| =========                 |                                                 |
| \\      /  F ield         | OpenFOAM: The Open Source CFD Toolbox           |
|  \\    /   O peration     | Version:  2312                                  |
|   \\  /    A nd           | Website:  www.openfoam.com                      |
|    \\/     M anipulation  |                                                 |
\*---------------------------------------------------------------------------*/
FoamFile
{
    version     2.0;
    format      ascii;
    arch        "LSB;label=32;scalar=64";
    class       pointVectorField;
    location    "0.02/beam";
    object      pointW;
}
// * * * * * * * * * * * * * * * * * * * * * * * * * * * * * * * * * * * * * //

dimensions      [0 1 0 0 0 0 0];

internalField   nonuniform List<vector> 
1952
(
(1.827402194e-09 2.287240649e-17 -3.665865354e-12)
(1.79228866e-09 2.244298497e-17 -3.59542951e-12)
(1.688300336e-09 2.103352215e-17 -3.386828144e-12)
(1.519430098e-09 1.908195824e-17 -3.048069609e-12)
(1.292169792e-09 1.604619215e-17 -2.592176907e-12)
(1.015249831e-09 1.25767452e-17 -2.036663806e-12)
(6.993148331e-10 8.67361738e-18 -1.402883452e-12)
(3.565083433e-10 4.33680869e-18 -7.151968904e-13)
(-7.777744183e-18 0 -2.287241006e-17)
(-3.565083586e-10 -4.33680869e-18 7.151521129e-13)
(-6.993148475e-10 -8.67361738e-18 1.402841168e-12)
(-1.015249844e-09 -1.25767452e-17 2.036625642e-12)
(-1.292169803e-09 -1.604619215e-17 2.592144381e-12)
(-1.519430107e-09 -1.908195824e-17 3.048044022e-12)
(-1.688300342e-09 -2.103352215e-17 3.386810363e-12)
(-1.792288663e-09 -2.244298497e-17 3.595420836e-12)
(-1.827402194e-09 -2.287240649e-17 3.665865354e-12)
(-1.79228866e-09 -2.244298497e-17 3.59542951e-12)
(-1.688300336e-09 -2.103352215e-17 3.386828144e-12)
(-1.519430098e-09 -1.908195824e-17 3.048069609e-12)
(-1.292169792e-09 -1.604619215e-17 2.592176907e-12)
(-1.015249831e-09 -1.25767452e-17 2.036663806e-12)
(-6.993148331e-10 -8.67361738e-18 1.402883452e-12)
(-3.565083433e-10 -4.33680869e-18 7.151968904e-13)
(7.777744009e-18 0 2.287241006e-17)
(3.565083586e-10 4.33680869e-18 -7.151521129e-13)
(6.993148475e-10 8.67361738e-18 -1.402841168e-12)
(1.015249844e-09 1.25767452e-17 -2.036625642e-12)
(1.292169803e-09 1.604619215e-17 -2.592144381e-12)
(1.519430107e-09 1.908195824e-17 -3.048044022e-12)
(1.688300342e-09 2.103352215e-17 -3.386810363e-12)
(1.792288663e-09 2.244298497e-17 -3.595420836e-12)
(4.076036064e-09 9.358809815e-16 2.02147272e-08)
(4.04095344e-09 9.354496344e-16 2.021479392e-08)
(3.937056674e-09 9.339317514e-16 2.021499151e-08)
(3.768335116e-09 9.319801875e-16 2.021531238e-08)
(3.541274891e-09 9.289444214e-16 2.021574421e-08)
(3.264598744e-09 9.254749744e-16 2.021627039e-08)
(2.948941903e-09 9.215718466e-16 2.021687071e-08)
(2.606437233e-09 9.176687188e-16 2.021752209e-08)
(2.250242763e-09 9.133319101e-16 2.021819951e-08)
(1.894048293e-09 9.089951014e-16 2.021887693e-08)
(1.551543623e-09 9.042246119e-16 2.021952831e-08)
(1.235886782e-09 9.00321484e-16 2.022012863e-08)
(9.592106345e-10 8.968520371e-16 2.022065482e-08)
(7.321504167e-10 8.93816271e-16 2.022108665e-08)
(5.634288591e-10 8.918647071e-16 2.022140754e-08)
(4.595320929e-10 8.905636645e-16 2.022160513e-08)
(4.244494756e-10 8.901360062e-16 2.022167186e-08)
(4.595320999e-10 8.905636645e-16 2.022160514e-08)
(5.634288661e-10 8.918647071e-16 2.022140755e-08)
(7.321504236e-10 8.93816271e-16 2.022108668e-08)
(9.592106484e-10 8.968520371e-16 2.022065486e-08)
(1.235886796e-09 9.00321484e-16 2.022012867e-08)
(1.551543637e-09 9.042246119e-16 2.021952835e-08)
(1.894048307e-09 9.089951014e-16 2.021887697e-08)
(2.250242777e-09 9.133319101e-16 2.021819955e-08)
(2.606437247e-09 9.176687188e-16 2.021752214e-08)
(2.948941917e-09 9.215718466e-16 2.021687075e-08)
(3.264598758e-09 9.254749744e-16 2.021627043e-08)
(3.541274905e-09 9.289444214e-16 2.021574424e-08)
(3.768335123e-09 9.319801875e-16 2.021531241e-08)
(3.937056681e-09 9.339317514e-16 2.021499153e-08)
(4.040953447e-09 9.354496344e-16 2.021479393e-08)
(6.321703994e-09 8.459270079e-16 4.039544551e-08)
(6.286721588e-09 8.454608541e-16 4.039550719e-08)
(6.18312157e-09 8.441598115e-16 4.039568984e-08)
(6.014881926e-09 8.422082476e-16 4.039598646e-08)
(5.788470245e-09 8.391724815e-16 4.039638565e-08)
(5.512584361e-09 8.357030346e-16 4.039687207e-08)
(5.197829112e-09 8.317999067e-16 4.039742702e-08)
(4.856302735e-09 8.265957363e-16 4.039802917e-08)
(4.501125639e-09 8.222589276e-16 4.039865539e-08)
(4.145948557e-09 8.179221189e-16 4.039928161e-08)
(3.804422166e-09 8.14452672e-16 4.039988376e-08)
(3.48966693e-09 8.105495442e-16 4.040043871e-08)
(3.213781047e-09 8.070800972e-16 4.040092514e-08)
(2.987369366e-09 8.040443311e-16 4.040132433e-08)
(2.819129721e-09 8.020927672e-16 4.040162096e-08)
(2.715529718e-09 8.005748842e-16 4.040180363e-08)
(2.680547312e-09 8.001818691e-16 4.040186531e-08)
(2.715529718e-09 8.005748842e-16 4.040180364e-08)
(2.819129735e-09 8.020927672e-16 4.040162098e-08)
(2.98736938e-09 8.040443311e-16 4.040132436e-08)
(3.213781061e-09 8.070800972e-16 4.040092517e-08)
(3.489666944e-09 8.105495442e-16 4.040043875e-08)
(3.804422194e-09 8.14452672e-16 4.03998838e-08)
(4.145948571e-09 8.179221189e-16 4.039928165e-08)
(4.501125667e-09 8.222589276e-16 4.039865543e-08)
(4.856302749e-09 8.265957363e-16 4.039802921e-08)
(5.197829139e-09 8.317999067e-16 4.039742706e-08)
(5.512584375e-09 8.357030346e-16 4.039687211e-08)
(5.788470259e-09 8.391724815e-16 4.039638568e-08)
(6.01488194e-09 8.422082476e-16 4.039598649e-08)
(6.183121584e-09 8.441598115e-16 4.039568986e-08)
(6.286721588e-09 8.454608541e-16 4.03955072e-08)
(8.560869569e-09 7.518831384e-16 6.048880801e-08)
(8.526090223e-09 7.514605257e-16 6.048886566e-08)
(8.423091613e-09 7.500510629e-16 6.048903639e-08)
(8.255828549e-09 7.48099499e-16 6.048931364e-08)
(8.030731163e-09 7.450637329e-16 6.048968676e-08)
(7.756446735e-09 7.41594286e-16 6.049014141e-08)
(7.443518607e-09 7.376911582e-16 6.049066012e-08)
(7.103974742e-09 7.329206686e-16 6.049122295e-08)
(6.750859399e-09 7.285838599e-16 6.049180827e-08)
(6.397744057e-09 7.242470512e-16 6.04923936e-08)
(6.058200164e-09 7.203439234e-16 6.049295643e-08)
(5.745272036e-09 7.164407956e-16 6.049347514e-08)
(5.470987607e-09 7.129713486e-16 6.04939298e-08)
(5.245890222e-09 7.099355825e-16 6.049430293e-08)
(5.078627185e-09 7.079840186e-16 6.049458019e-08)
(4.975628576e-09 7.065745558e-16 6.049475092e-08)
(4.94084923e-09 7.061379961e-16 6.049480858e-08)
(4.975628576e-09 7.065745558e-16 6.049475093e-08)
(5.078627185e-09 7.079840186e-16 6.04945802e-08)
(5.24589025e-09 7.099355825e-16 6.049430295e-08)
(5.470987635e-09 7.129713486e-16 6.049392983e-08)
(5.745272064e-09 7.164407956e-16 6.049347518e-08)
(6.058200192e-09 7.203439234e-16 6.049295647e-08)
(6.397744057e-09 7.242470512e-16 6.049239364e-08)
(6.750859399e-09 7.285838599e-16 6.049180832e-08)
(7.103974742e-09 7.329206686e-16 6.049122299e-08)
(7.443518635e-09 7.376911582e-16 6.049066016e-08)
(7.756446763e-09 7.41594286e-16 6.049014145e-08)
(8.030731191e-09 7.450637329e-16 6.048968679e-08)
(8.255828576e-09 7.48099499e-16 6.048931366e-08)
(8.423091613e-09 7.500510629e-16 6.04890364e-08)
(8.526090223e-09 7.514605257e-16 6.048886567e-08)
(1.078899137e-08 6.545237649e-16 8.042196896e-08)
(1.075456546e-08 6.540991707e-16 8.042202225e-08)
(1.065261357e-08 6.526897078e-16 8.042218005e-08)
(1.048705037e-08 6.509549844e-16 8.042243631e-08)
(1.026424057e-08 6.479192183e-16 8.042278119e-08)
(9.992743605e-09 6.444497713e-16 8.042320142e-08)
(9.682995628e-09 6.405466435e-16 8.042368086e-08)
(9.346902419e-09 6.357761539e-16 8.042420109e-08)
(8.997375678e-09 6.314393453e-16 8.04247421e-08)
(8.647848909e-09 6.271025366e-16 8.042528312e-08)
(8.3117557e-09 6.231994087e-16 8.042580334e-08)
(8.002007751e-09 6.192962809e-16 8.042628279e-08)
(7.730510787e-09 6.15826834e-16 8.042670303e-08)
(7.507700961e-09 6.127910679e-16 8.042704791e-08)
(7.342137759e-09 6.106226635e-16 8.042730418e-08)
(7.240185868e-09 6.092132007e-16 8.042746199e-08)
(7.205759989e-09 6.087786192e-16 8.042751528e-08)
(7.240185895e-09 6.092132007e-16 8.0427462e-08)
(7.342137787e-09 6.106226635e-16 8.04273042e-08)
(7.507700989e-09 6.127910679e-16 8.042704794e-08)
(7.730510787e-09 6.15826834e-16 8.042670306e-08)
(8.002007751e-09 6.192962809e-16 8.042628283e-08)
(8.311755728e-09 6.231994087e-16 8.042580339e-08)
(8.647848937e-09 6.271025366e-16 8.042528316e-08)
(8.997375678e-09 6.314393453e-16 8.042474215e-08)
(9.346902446e-09 6.357761539e-16 8.042420113e-08)
(9.682995655e-09 6.405466435e-16 8.042368091e-08)
(9.992743605e-09 6.444497713e-16 8.042320146e-08)
(1.026424057e-08 6.479192183e-16 8.042278122e-08)
(1.048705039e-08 6.509549844e-16 8.042243634e-08)
(1.06526136e-08 6.526897078e-16 8.042218007e-08)
(1.075456549e-08 6.540991707e-16 8.042202226e-08)
(1.300084745e-08 5.557918568e-16 1.000898689e-07)
(1.296698934e-08 5.553283527e-16 1.000899183e-07)
(1.286671891e-08 5.538104697e-16 1.000900645e-07)
(1.270388628e-08 5.520757462e-16 1.000903019e-07)
(1.248475121e-08 5.490399801e-16 1.000906214e-07)
(1.221773194e-08 5.455705332e-16 1.000910107e-07)
(1.191309257e-08 5.416674054e-16 1.000914548e-07)
(1.15825424e-08 5.377642776e-16 1.000919368e-07)
(1.12387803e-08 5.334274689e-16 1.00092438e-07)
(1.089501817e-08 5.290906602e-16 1.000929392e-07)
(1.056446802e-08 5.243201706e-16 1.000934211e-07)
(1.025982863e-08 5.204170428e-16 1.000938653e-07)
(9.992809386e-09 5.169475958e-16 1.000942546e-07)
(9.773674314e-09 5.139118298e-16 1.000945741e-07)
(9.610841678e-09 5.117434254e-16 1.000948115e-07)
(9.510571247e-09 5.104423828e-16 1.000949577e-07)
(9.476713136e-09 5.100467879e-16 1.000950071e-07)
(9.510571247e-09 5.104423828e-16 1.000949577e-07)
(9.610841678e-09 5.117434254e-16 1.000948115e-07)
(9.773674314e-09 5.139118298e-16 1.000945741e-07)
(9.992809386e-09 5.169475958e-16 1.000942546e-07)
(1.025982865e-08 5.204170428e-16 1.000938653e-07)
(1.056446802e-08 5.243201706e-16 1.000934212e-07)
(1.089501819e-08 5.290906602e-16 1.000929392e-07)
(1.12387803e-08 5.334274689e-16 1.00092438e-07)
(1.158254243e-08 5.377642776e-16 1.000919368e-07)
(1.191309257e-08 5.416674054e-16 1.000914549e-07)
(1.221773197e-08 5.455705332e-16 1.000910107e-07)
(1.248475121e-08 5.490399801e-16 1.000906214e-07)
(1.270388628e-08 5.520757462e-16 1.000903019e-07)
(1.286671891e-08 5.538104697e-16 1.000900645e-07)
(1.296698934e-08 5.553283527e-16 1.000899183e-07)
(1.518943626e-08 4.581985495e-16 1.193412862e-07)
(1.515645676e-08 4.577501572e-16 1.193413316e-07)
(1.505878849e-08 4.564491146e-16 1.193414662e-07)
(1.490018153e-08 4.544975507e-16 1.193416847e-07)
(1.468673322e-08 4.514617846e-16 1.193419788e-07)
(1.442664344e-08 4.479923377e-16 1.193423371e-07)
(1.412990974e-08 4.440892099e-16 1.193427459e-07)
(1.380793774e-08 4.397524012e-16 1.193431895e-07)
(1.347309664e-08 4.354155925e-16 1.193436508e-07)
(1.313825548e-08 4.310787838e-16 1.193441122e-07)
(1.281628348e-08 4.267419751e-16 1.193445558e-07)
(1.251954984e-08 4.228388473e-16 1.193449646e-07)
(1.225946e-08 4.193694003e-16 1.193453229e-07)
(1.204601174e-08 4.163336342e-16 1.19345617e-07)
(1.188740478e-08 4.143820703e-16 1.193458355e-07)
(1.178973652e-08 4.128641873e-16 1.193459701e-07)
(1.175675701e-08 4.124534774e-16 1.193460156e-07)
(1.178973652e-08 4.128641873e-16 1.193459701e-07)
(1.188740478e-08 4.143820703e-16 1.193458356e-07)
(1.204601174e-08 4.163336342e-16 1.19345617e-07)
(1.225946006e-08 4.193694003e-16 1.19345323e-07)
(1.251954984e-08 4.228388473e-16 1.193449646e-07)
(1.281628353e-08 4.267419751e-16 1.193445558e-07)
(1.313825554e-08 4.310787838e-16 1.193441122e-07)
(1.347309664e-08 4.354155925e-16 1.193436509e-07)
(1.380793779e-08 4.397524012e-16 1.193431896e-07)
(1.41299098e-08 4.440892099e-16 1.19342746e-07)
(1.442664344e-08 4.479923377e-16 1.193423371e-07)
(1.468673327e-08 4.514617846e-16 1.193419788e-07)
(1.490018153e-08 4.544975507e-16 1.193416847e-07)
(1.505878849e-08 4.564491146e-16 1.193414662e-07)
(1.515645676e-08 4.577501572e-16 1.193413316e-07)
(1.734638044e-08 3.643645706e-16 1.379613383e-07)
(1.731471488e-08 3.638582491e-16 1.379613801e-07)
(1.722093756e-08 3.625572065e-16 1.379615037e-07)
(1.706864944e-08 3.60822483e-16 1.379617046e-07)
(1.686370477e-08 3.577867169e-16 1.379619749e-07)
(1.661397675e-08 3.5431727e-16 1.379623042e-07)
(1.632906477e-08 3.504141421e-16 1.3796268e-07)
(1.601991989e-08 3.460773335e-16 1.379630877e-07)
(1.569841862e-08 3.417405248e-16 1.379635117e-07)
(1.537691735e-08 3.374037161e-16 1.379639357e-07)
(1.506777247e-08 3.330669074e-16 1.379643435e-07)
(1.478286044e-08 3.291637796e-16 1.379647192e-07)
(1.453313242e-08 3.256943326e-16 1.379650486e-07)
(1.43281878e-08 3.226585665e-16 1.379653189e-07)
(1.417589962e-08 3.204901622e-16 1.379655197e-07)
(1.408212236e-08 3.189722791e-16 1.379656434e-07)
(1.40504568e-08 3.186195754e-16 1.379656852e-07)
(1.408212236e-08 3.189722791e-16 1.379656434e-07)
(1.417589968e-08 3.204901622e-16 1.379655197e-07)
(1.43281878e-08 3.226585665e-16 1.379653189e-07)
(1.453313248e-08 3.256943326e-16 1.379650486e-07)
(1.478286049e-08 3.291637796e-16 1.379647193e-07)
(1.506777247e-08 3.330669074e-16 1.379643435e-07)
(1.537691735e-08 3.374037161e-16 1.379639358e-07)
(1.569841862e-08 3.417405248e-16 1.379635118e-07)
(1.601991989e-08 3.460773335e-16 1.379630877e-07)
(1.632906477e-08 3.504141421e-16 1.3796268e-07)
(1.661397681e-08 3.5431727e-16 1.379623043e-07)
(1.686370482e-08 3.577867169e-16 1.379619749e-07)
(1.706864944e-08 3.60822483e-16 1.379617046e-07)
(1.722093762e-08 3.625572065e-16 1.379615037e-07)
(1.731471488e-08 3.638582491e-16 1.379613801e-07)
(1.946331468e-08 2.766931748e-16 1.556636718e-07)
(1.943352201e-08 2.762547135e-16 1.556637099e-07)
(1.934529154e-08 2.749536709e-16 1.55663823e-07)
(1.920201104e-08 2.727852666e-16 1.556640067e-07)
(1.900918856e-08 2.697495005e-16 1.556642539e-07)
(1.877423156e-08 2.662800536e-16 1.556645551e-07)
(1.850617171e-08 2.623769257e-16 1.556648987e-07)
(1.821531226e-08 2.584737979e-16 1.556652716e-07)
(1.791282733e-08 2.541369892e-16 1.556656593e-07)
(1.761034235e-08 2.498001805e-16 1.556660471e-07)
(1.731948296e-08 2.45029691e-16 1.556664199e-07)
(1.705142311e-08 2.411265632e-16 1.556667636e-07)
(1.681646611e-08 2.376571162e-16 1.556670648e-07)
(1.662364363e-08 2.346213501e-16 1.55667312e-07)
(1.648036307e-08 2.328866266e-16 1.556674956e-07)
(1.63921326e-08 2.313687436e-16 1.556676087e-07)
(1.636233998e-08 2.309481764e-16 1.556676469e-07)
(1.639213265e-08 2.313687436e-16 1.556676088e-07)
(1.648036313e-08 2.328866266e-16 1.556674957e-07)
(1.662364363e-08 2.346213501e-16 1.55667312e-07)
(1.681646611e-08 2.376571162e-16 1.556670648e-07)
(1.705142311e-08 2.411265632e-16 1.556667636e-07)
(1.731948296e-08 2.45029691e-16 1.5566642e-07)
(1.761034241e-08 2.498001805e-16 1.556660471e-07)
(1.791282733e-08 2.541369892e-16 1.556656594e-07)
(1.821531231e-08 2.584737979e-16 1.556652716e-07)
(1.850617171e-08 2.623769257e-16 1.556648988e-07)
(1.877423156e-08 2.662800536e-16 1.556645551e-07)
(1.900918856e-08 2.697495005e-16 1.556642539e-07)
(1.920201104e-08 2.727852666e-16 1.556640067e-07)
(1.934529159e-08 2.749536709e-16 1.556638231e-07)
(1.943352207e-08 2.762547135e-16 1.5566371e-07)
(2.152996625e-08 1.971592869e-16 1.720797842e-07)
(2.150276701e-08 1.967826943e-16 1.72079819e-07)
(2.142221672e-08 1.95156391e-16 1.720799221e-07)
(2.129140836e-08 1.934216676e-16 1.720800895e-07)
(2.111537051e-08 1.903859015e-16 1.720803148e-07)
(2.090086587e-08 1.869164545e-16 1.720805893e-07)
(2.065613985e-08 1.830133267e-16 1.720809025e-07)
(2.039059888e-08 1.78676518e-16 1.720812423e-07)
(2.011444439e-08 1.743397093e-16 1.720815957e-07)
(1.983828984e-08 1.700029006e-16 1.720819492e-07)
(1.957274892e-08 1.65666092e-16 1.72082289e-07)
(1.93280229e-08 1.617629641e-16 1.720826022e-07)
(1.911351827e-08 1.582935172e-16 1.720828767e-07)
(1.893748042e-08 1.552577511e-16 1.72083102e-07)
(1.880667205e-08 1.530893468e-16 1.720832694e-07)
(1.872612176e-08 1.518967244e-16 1.720833725e-07)
(1.869892252e-08 1.514143655e-16 1.720834073e-07)
(1.872612176e-08 1.518967244e-16 1.720833725e-07)
(1.880667205e-08 1.530893468e-16 1.720832695e-07)
(1.893748042e-08 1.552577511e-16 1.720831021e-07)
(1.911351827e-08 1.582935172e-16 1.720828768e-07)
(1.93280229e-08 1.617629641e-16 1.720826022e-07)
(1.957274892e-08 1.65666092e-16 1.72082289e-07)
(1.98382899e-08 1.700029006e-16 1.720819492e-07)
(2.011444439e-08 1.743397093e-16 1.720815958e-07)
(2.039059893e-08 1.78676518e-16 1.720812424e-07)
(2.065613985e-08 1.830133267e-16 1.720809025e-07)
(2.090086587e-08 1.869164545e-16 1.720805893e-07)
(2.111537051e-08 1.903859015e-16 1.720803148e-07)
(2.129140836e-08 1.934216676e-16 1.720800895e-07)
(2.142221672e-08 1.95156391e-16 1.720799221e-07)
(2.150276701e-08 1.967826943e-16 1.72079819e-07)
(2.353491646e-08 1.271983515e-16 1.867418375e-07)
(2.351121459e-08 1.26743234e-16 1.867418691e-07)
(2.344102168e-08 1.253337711e-16 1.867419625e-07)
(2.332703297e-08 1.231653668e-16 1.867421144e-07)
(2.317363051e-08 1.201296007e-16 1.867423187e-07)
(2.298670737e-08 1.166601538e-16 1.867425676e-07)
(2.277344885e-08 1.127570259e-16 1.867428516e-07)
(2.254205184e-08 1.084202172e-16 1.867431598e-07)
(2.230140594e-08 1.040834086e-16 1.867434803e-07)
(2.206076005e-08 9.974659987e-17 1.867438009e-07)
(2.182936304e-08 9.540979118e-17 1.86744109e-07)
(2.161610452e-08 9.150666336e-17 1.867443931e-07)
(2.142918137e-08 8.803721641e-17 1.86744642e-07)
(2.127577892e-08 8.500145032e-17 1.867448464e-07)
(2.116179021e-08 8.326672685e-17 1.867449982e-07)
(2.10915973e-08 8.185726402e-17 1.867450917e-07)
(2.106789543e-08 8.145342699e-17 1.867451232e-07)
(2.10915973e-08 8.185726402e-17 1.867450917e-07)
(2.116179021e-08 8.326672685e-17 1.867449982e-07)
(2.127577892e-08 8.500145032e-17 1.867448464e-07)
(2.142918137e-08 8.803721641e-17 1.867446421e-07)
(2.161610452e-08 9.150666336e-17 1.867443931e-07)
(2.182936304e-08 9.540979118e-17 1.867441091e-07)
(2.206076005e-08 9.974659987e-17 1.867438009e-07)
(2.230140594e-08 1.040834086e-16 1.867434804e-07)
(2.254205184e-08 1.084202172e-16 1.867431599e-07)
(2.277344885e-08 1.127570259e-16 1.867428517e-07)
(2.298670737e-08 1.166601538e-16 1.867425677e-07)
(2.317363051e-08 1.201296007e-16 1.867423187e-07)
(2.332703297e-08 1.231653668e-16 1.867421144e-07)
(2.344102168e-08 1.253337711e-16 1.867419626e-07)
(2.351121459e-08 1.26743234e-16 1.867418691e-07)
(2.546692918e-08 6.767382196e-17 1.990770412e-07)
(2.544780936e-08 6.732895491e-17 1.990770697e-07)
(2.539118621e-08 6.570265165e-17 1.990771541e-07)
(2.529923393e-08 6.375108774e-17 1.990772911e-07)
(2.517548742e-08 6.071532166e-17 1.990774756e-07)
(2.502470053e-08 5.724587471e-17 1.990777003e-07)
(2.485266937e-08 5.334274689e-17 1.990779566e-07)
(2.466600635e-08 4.943961907e-17 1.990782348e-07)
(2.447188241e-08 4.510281038e-17 1.990785241e-07)
(2.427775847e-08 4.076600169e-17 1.990788134e-07)
(2.40910954e-08 3.599551213e-17 1.990790916e-07)
(2.391906428e-08 3.209238431e-17 1.99079348e-07)
(2.376827735e-08 2.862293735e-17 1.990795727e-07)
(2.364453089e-08 2.558717127e-17 1.990797571e-07)
(2.355257861e-08 2.363560736e-17 1.990798942e-07)
(2.349595546e-08 2.244298497e-17 1.990799786e-07)
(2.347683564e-08 2.192889438e-17 1.990800071e-07)
(2.349595546e-08 2.244298497e-17 1.990799786e-07)
(2.355257861e-08 2.363560736e-17 1.990798942e-07)
(2.364453089e-08 2.558717127e-17 1.990797572e-07)
(2.37682774e-08 2.862293735e-17 1.990795728e-07)
(2.391906428e-08 3.209238431e-17 1.99079348e-07)
(2.409109545e-08 3.599551213e-17 1.990790917e-07)
(2.427775847e-08 4.076600169e-17 1.990788135e-07)
(2.447188241e-08 4.510281038e-17 1.990785242e-07)
(2.466600635e-08 4.943961907e-17 1.990782349e-07)
(2.485266942e-08 5.334274689e-17 1.990779567e-07)
(2.502470053e-08 5.724587471e-17 1.990777003e-07)
(2.517548747e-08 6.071532166e-17 1.990774756e-07)
(2.529923393e-08 6.375108774e-17 1.990772912e-07)
(2.539118621e-08 6.570265165e-17 1.990771541e-07)
(2.544780936e-08 6.732895491e-17 1.990770697e-07)
(2.731374449e-08 1.889949654e-17 2.084026555e-07)
(2.730049242e-08 1.853985715e-17 2.08402681e-07)
(2.726124659e-08 1.691355389e-17 2.084027568e-07)
(2.719751402e-08 1.517883041e-17 2.084028798e-07)
(2.711174463e-08 1.214306433e-17 2.084030453e-07)
(2.700723345e-08 8.67361738e-18 2.084032469e-07)
(2.688799772e-08 4.770489559e-18 2.08403477e-07)
(2.675862054e-08 8.67361738e-19 2.084037267e-07)
(2.662407217e-08 -3.469446952e-18 2.084039863e-07)
(2.64895238e-08 -7.806255642e-18 2.08404246e-07)
(2.636014662e-08 -1.25767452e-17 2.084044956e-07)
(2.624091089e-08 -1.647987302e-17 2.084047257e-07)
(2.613639971e-08 -1.994931997e-17 2.084049274e-07)
(2.605063032e-08 -2.298508606e-17 2.084050929e-07)
(2.598689774e-08 -2.51534904e-17 2.084052159e-07)
(2.594765192e-08 -2.634611279e-17 2.084052917e-07)
(2.593439985e-08 -2.684543396e-17 2.084053173e-07)
(2.594765192e-08 -2.634611279e-17 2.084052917e-07)
(2.598689774e-08 -2.51534904e-17 2.08405216e-07)
(2.605063032e-08 -2.298508606e-17 2.08405093e-07)
(2.613639971e-08 -1.994931997e-17 2.084049275e-07)
(2.624091089e-08 -1.647987302e-17 2.084047258e-07)
(2.636014662e-08 -1.25767452e-17 2.084044957e-07)
(2.64895238e-08 -7.806255642e-18 2.08404246e-07)
(2.662407217e-08 -3.469446952e-18 2.084039864e-07)
(2.675862054e-08 8.67361738e-19 2.084037267e-07)
(2.688799772e-08 4.770489559e-18 2.084034771e-07)
(2.700723345e-08 8.67361738e-18 2.08403247e-07)
(2.711174463e-08 1.214306433e-17 2.084030453e-07)
(2.719751402e-08 1.517883041e-17 2.084028798e-07)
(2.726124659e-08 1.691355389e-17 2.084027568e-07)
(2.730049242e-08 1.853985715e-17 2.08402681e-07)
(2.906512275e-08 -1.929985554e-17 2.139311402e-07)
(2.905918706e-08 -1.973247954e-17 2.13931163e-07)
(2.904160834e-08 -2.103352215e-17 2.139312306e-07)
(2.901306173e-08 -2.298508606e-17 2.139313403e-07)
(2.897464457e-08 -2.602085214e-17 2.139314879e-07)
(2.89278328e-08 -2.949029909e-17 2.139316678e-07)
(2.887442563e-08 -3.339342691e-17 2.139318731e-07)
(2.881647598e-08 -3.816391647e-17 2.139320958e-07)
(2.875621019e-08 -4.250072516e-17 2.139323274e-07)
(2.86959444e-08 -4.683753385e-17 2.13932559e-07)
(2.863799475e-08 -5.074066167e-17 2.139327817e-07)
(2.858458759e-08 -5.464378949e-17 2.13932987e-07)
(2.853777581e-08 -5.811323645e-17 2.139331669e-07)
(2.849935865e-08 -6.114900253e-17 2.139333146e-07)
(2.847081204e-08 -6.310056644e-17 2.139334243e-07)
(2.845323333e-08 -6.461844948e-17 2.139334918e-07)
(2.844729763e-08 -6.504478883e-17 2.139335147e-07)
(2.845323333e-08 -6.461844948e-17 2.139334918e-07)
(2.847081204e-08 -6.310056644e-17 2.139334243e-07)
(2.849935865e-08 -6.114900253e-17 2.139333146e-07)
(2.853777581e-08 -5.811323645e-17 2.139331669e-07)
(2.858458759e-08 -5.464378949e-17 2.13932987e-07)
(2.863799475e-08 -5.074066167e-17 2.139327818e-07)
(2.86959444e-08 -4.683753385e-17 2.139325591e-07)
(2.875621019e-08 -4.250072516e-17 2.139323275e-07)
(2.881647598e-08 -3.816391647e-17 2.139320958e-07)
(2.887442563e-08 -3.339342691e-17 2.139318731e-07)
(2.89278328e-08 -2.949029909e-17 2.139316679e-07)
(2.897464457e-08 -2.602085214e-17 2.13931488e-07)
(2.901306173e-08 -2.298508606e-17 2.139313403e-07)
(2.904160834e-08 -2.103352215e-17 2.139312306e-07)
(2.905918706e-08 -1.973247954e-17 2.13931163e-07)
(3.071059873e-08 -4.750166268e-17 2.147796792e-07)
(3.071359567e-08 -4.792173602e-17 2.147796994e-07)
(3.072247112e-08 -4.922277863e-17 2.147797592e-07)
(3.073688426e-08 -5.117434254e-17 2.147798564e-07)
(3.075628097e-08 -5.421010862e-17 2.147799871e-07)
(3.077991606e-08 -5.767955558e-17 2.147801465e-07)
(3.080688116e-08 -6.15826834e-17 2.147803283e-07)
(3.083613975e-08 -6.591949209e-17 2.147805256e-07)
(3.086656786e-08 -7.025630078e-17 2.147807308e-07)
(3.089699596e-08 -7.459310947e-17 2.147809359e-07)
(3.092625456e-08 -7.892991816e-17 2.147811332e-07)
(3.095321965e-08 -8.283304598e-17 2.14781315e-07)
(3.097685475e-08 -8.630249293e-17 2.147814744e-07)
(3.099625145e-08 -8.933825901e-17 2.147816052e-07)
(3.101066459e-08 -9.128982292e-17 2.147817024e-07)
(3.101954005e-08 -9.280770596e-17 2.147817622e-07)
(3.102253698e-08 -9.324659855e-17 2.147817824e-07)
(3.101954005e-08 -9.280770596e-17 2.147817622e-07)
(3.101066459e-08 -9.128982292e-17 2.147817024e-07)
(3.099625145e-08 -8.933825901e-17 2.147816052e-07)
(3.097685475e-08 -8.630249293e-17 2.147814744e-07)
(3.095321965e-08 -8.283304598e-17 2.147813151e-07)
(3.092625456e-08 -7.892991816e-17 2.147811332e-07)
(3.089699596e-08 -7.459310947e-17 2.14780936e-07)
(3.086656786e-08 -7.025630078e-17 2.147807308e-07)
(3.083613975e-08 -6.591949209e-17 2.147805256e-07)
(3.080688116e-08 -6.15826834e-17 2.147803284e-07)
(3.077991606e-08 -5.767955558e-17 2.147801465e-07)
(3.075628097e-08 -5.421010862e-17 2.147799872e-07)
(3.073688426e-08 -5.117434254e-17 2.147798564e-07)
(3.072247112e-08 -4.922277863e-17 2.147797592e-07)
(3.071359567e-08 -4.792173602e-17 2.147796994e-07)
(3.224370171e-08 -6.65919547e-17 2.099906003e-07)
(3.225733969e-08 -6.700369426e-17 2.099906181e-07)
(3.229772827e-08 -6.85215773e-17 2.099906707e-07)
(3.236331692e-08 -7.068998165e-17 2.099907561e-07)
(3.245158398e-08 -7.372574773e-17 2.09990871e-07)
(3.255913861e-08 -7.719519468e-17 2.099910111e-07)
(3.268184656e-08 -8.10983225e-17 2.099911709e-07)
(3.281499139e-08 -8.500145032e-17 2.099913443e-07)
(3.295345785e-08 -8.933825901e-17 2.099915246e-07)
(3.309192431e-08 -9.36750677e-17 2.099917049e-07)
(3.322506914e-08 -9.844555726e-17 2.099918783e-07)
(3.33477771e-08 -1.023486851e-16 2.09992038e-07)
(3.345533173e-08 -1.05818132e-16 2.099921781e-07)
(3.354359879e-08 -1.088538981e-16 2.099922931e-07)
(3.360918743e-08 -1.105886216e-16 2.099923785e-07)
(3.364957601e-08 -1.118896642e-16 2.099924311e-07)
(3.366321399e-08 -1.123368129e-16 2.099924488e-07)
(3.364957601e-08 -1.118896642e-16 2.099924311e-07)
(3.360918743e-08 -1.105886216e-16 2.099923785e-07)
(3.354359879e-08 -1.088538981e-16 2.099922931e-07)
(3.345533173e-08 -1.05818132e-16 2.099921781e-07)
(3.33477771e-08 -1.023486851e-16 2.099920381e-07)
(3.322506914e-08 -9.844555726e-17 2.099918783e-07)
(3.309192431e-08 -9.36750677e-17 2.099917049e-07)
(3.295345785e-08 -8.933825901e-17 2.099915246e-07)
(3.281499139e-08 -8.500145032e-17 2.099913443e-07)
(3.268184656e-08 -8.10983225e-17 2.099911709e-07)
(3.255913861e-08 -7.719519468e-17 2.099910111e-07)
(3.245158398e-08 -7.372574773e-17 2.099908711e-07)
(3.236331692e-08 -7.068998165e-17 2.099907561e-07)
(3.229772827e-08 -6.85215773e-17 2.099906707e-07)
(3.225733969e-08 -6.700369426e-17 2.099906181e-07)
(3.366096935e-08 -7.766952064e-17 1.985696597e-07)
(3.368699164e-08 -7.806255642e-17 1.985696752e-07)
(3.376405611e-08 -7.958043946e-17 1.98569721e-07)
(3.3889204e-08 -8.153200337e-17 1.985697954e-07)
(3.405762394e-08 -8.456776945e-17 1.985698955e-07)
(3.426284612e-08 -8.803721641e-17 1.985700174e-07)
(3.449698194e-08 -9.194034423e-17 1.985701566e-07)
(3.475103194e-08 -9.627715292e-17 1.985703076e-07)
(3.501523616e-08 -1.006139616e-16 1.985704646e-07)
(3.527944037e-08 -1.049507703e-16 1.985706217e-07)
(3.553349037e-08 -1.09287579e-16 1.985707727e-07)
(3.576762619e-08 -1.131907068e-16 1.985709118e-07)
(3.597284837e-08 -1.166601538e-16 1.985710338e-07)
(3.614126831e-08 -1.196959198e-16 1.985711339e-07)
(3.62664162e-08 -1.216474838e-16 1.985712083e-07)
(3.634348067e-08 -1.229485264e-16 1.985712541e-07)
(3.636950296e-08 -1.234143809e-16 1.985712696e-07)
(3.634348067e-08 -1.229485264e-16 1.985712541e-07)
(3.62664162e-08 -1.216474838e-16 1.985712083e-07)
(3.614126831e-08 -1.196959198e-16 1.985711339e-07)
(3.597284837e-08 -1.166601538e-16 1.985710338e-07)
(3.576762619e-08 -1.131907068e-16 1.985709119e-07)
(3.553349037e-08 -1.09287579e-16 1.985707727e-07)
(3.527944037e-08 -1.049507703e-16 1.985706217e-07)
(3.501523616e-08 -1.006139616e-16 1.985704647e-07)
(3.475103194e-08 -9.627715292e-17 1.985703076e-07)
(3.449698194e-08 -9.194034423e-17 1.985701566e-07)
(3.426284612e-08 -8.803721641e-17 1.985700175e-07)
(3.405762394e-08 -8.456776945e-17 1.985698955e-07)
(3.3889204e-08 -8.153200337e-17 1.985697954e-07)
(3.376405611e-08 -7.958043946e-17 1.98569721e-07)
(3.368699164e-08 -7.806255642e-17 1.985696752e-07)
(3.496559509e-08 -8.195641668e-17 1.795390165e-07)
(3.500565271e-08 -8.239936511e-17 1.795390298e-07)
(3.512428326e-08 -8.391724815e-17 1.795390693e-07)
(3.531693138e-08 -8.586881206e-17 1.795391334e-07)
(3.557619122e-08 -8.890457814e-17 1.795392197e-07)
(3.589210307e-08 -9.23740251e-17 1.795393248e-07)
(3.625252354e-08 -9.627715292e-17 1.795394447e-07)
(3.664359904e-08 -1.006139616e-16 1.795395749e-07)
(3.705030582e-08 -1.049507703e-16 1.795397102e-07)
(3.74570126e-08 -1.09287579e-16 1.795398455e-07)
(3.784808811e-08 -1.136243877e-16 1.795399757e-07)
(3.820850858e-08 -1.175275155e-16 1.795400956e-07)
(3.852442043e-08 -1.209969624e-16 1.795402007e-07)
(3.878368027e-08 -1.240327285e-16 1.79540287e-07)
(3.897632839e-08 -1.259842924e-16 1.795403511e-07)
(3.909495894e-08 -1.27285335e-16 1.795403906e-07)
(3.913501656e-08 -1.277012787e-16 1.795404039e-07)
(3.909495894e-08 -1.27285335e-16 1.795403906e-07)
(3.897632839e-08 -1.259842924e-16 1.795403511e-07)
(3.878368027e-08 -1.240327285e-16 1.79540287e-07)
(3.852442043e-08 -1.209969624e-16 1.795402008e-07)
(3.820850858e-08 -1.175275155e-16 1.795400956e-07)
(3.784808811e-08 -1.136243877e-16 1.795399757e-07)
(3.74570126e-08 -1.09287579e-16 1.795398456e-07)
(3.705030582e-08 -1.049507703e-16 1.795397102e-07)
(3.664359904e-08 -1.006139616e-16 1.795395749e-07)
(3.625252354e-08 -9.627715292e-17 1.795394448e-07)
(3.589210307e-08 -9.23740251e-17 1.795393248e-07)
(3.557619122e-08 -8.890457814e-17 1.795392197e-07)
(3.531693138e-08 -8.586881206e-17 1.795391334e-07)
(3.512428326e-08 -8.391724815e-17 1.795390693e-07)
(3.500565271e-08 -8.239936511e-17 1.795390298e-07)
(3.616847422e-08 -8.072209948e-17 1.520161509e-07)
(3.622397948e-08 -8.10983225e-17 1.520161622e-07)
(3.638835788e-08 -8.261620554e-17 1.520161958e-07)
(3.665529758e-08 -8.456776945e-17 1.520162504e-07)
(3.701453677e-08 -8.760353554e-17 1.520163238e-07)