/*--------------------------------*- C++ -*----------------------------------*\
| =========                 |                                                 |
| \\      /  F ield         | OpenFOAM: The Open Source CFD Toolbox           |
|  \\    /   O peration     | Version:  2312                                  |
|   \\  /    A nd           | Website:  www.openfoam.com                      |
|    \\/     M anipulation  |                                                 |
\*---------------------------------------------------------------------------*/
FoamFile
{
    version     2.0;
    format      ascii;
    arch        "LSB;label=32;scalar=64";
    class       surfaceVectorField;
    location    "0.02/beam";
    object      Q;
}
// * * * * * * * * * * * * * * * * * * * * * * * * * * * * * * * * * * * * * //

dimensions      [1 1 -2 0 0 0 0];

oriented        oriented;

internalField   nonuniform List<vector> 
59
(
(7.797066432e-06 1.425424527e-17 1.721098999e-10)
(7.7874508e-06 -1.554940704e-18 2.902650247e-10)
(7.771442527e-06 -1.177183391e-17 4.899795351e-10)
(7.749068364e-06 -1.731713993e-17 7.748176975e-10)
(7.720365781e-06 -1.919260843e-17 1.148425054e-09)
(7.685382979e-06 -1.83770913e-17 1.613117011e-09)
(7.644178887e-06 -1.575858492e-17 2.168279685e-09)
(7.59682316e-06 -1.209505843e-17 2.808523636e-09)
(7.543396184e-06 -7.997537633e-18 3.521195709e-09)
(7.483989079e-06 -3.92929908e-18 4.283856897e-09)
(7.418703693e-06 -2.161220417e-19 5.061605682e-09)
(7.347652611e-06 2.936802292e-18 5.804050487e-09)
(7.270959152e-06 5.424335257e-18 6.44252773e-09)
(7.188757372e-06 7.219968165e-18 6.887083907e-09)
(7.101192069e-06 8.355171168e-18 7.024355636e-09)
(7.008418779e-06 8.900785787e-18 6.715820717e-09)
(6.910603785e-06 8.951002264e-18 5.797524828e-09)
(6.807924115e-06 8.610360507e-18 4.081269101e-09)
(6.700567546e-06 7.983643804e-18 1.358157055e-09)
(6.588732606e-06 7.168490299e-18 -2.59506436e-09)
(6.47262858e-06 6.250633129e-18 -8.005722054e-09)
(6.352475509e-06 5.300886147e-18 -1.509053574e-08)
(6.228518412e-06 4.373932364e-18 -2.403471754e-08)
(6.100956207e-06 3.508085712e-18 -3.49713716e-08)
(5.970098847e-06 2.727422343e-18 -4.793600928e-08)
(5.83615032e-06 2.042069972e-18 -6.2845626e-08)
(5.699445011e-06 1.45168371e-18 -7.942801766e-08)
(5.560205824e-06 9.464914789e-19 -9.71944183e-08)
(5.418791098e-06 5.107962951e-19 -1.153495992e-07)
(5.275443181e-06 1.242736368e-19 -1.327594543e-07)
(5.130543846e-06 -2.649007148e-19 -1.478534085e-07)
(4.984355454e-06 -7.090752421e-19 -1.585929585e-07)
(4.837282651e-06 -1.228685552e-18 -1.623920102e-07)
(4.689608408e-06 -1.840670693e-18 -1.560981536e-07)
(4.541759637e-06 -2.555141128e-18 -1.359761322e-07)
(4.394040555e-06 -3.374087787e-18 -9.772102351e-08)
(4.24689969e-06 -4.287588384e-18 -3.657379855e-08)
(4.100663177e-06 -5.272964689e-18 5.260608745e-08)
(3.955800485e-06 -6.291233819e-18 1.750002445e-07)
(3.812660414e-06 -7.287643263e-18 3.356646107e-07)
(3.671732711e-06 -8.189612691e-18 5.38854771e-07)
(3.533389693e-06 -8.909542761e-18 7.877277919e-07)
(3.398140768e-06 -9.34598085e-18 1.0832293e-06)
(3.266382741e-06 -9.389771508e-18 1.423634199e-06)
(3.138644048e-06 -8.930784891e-18 1.80293612e-06)
(3.015346895e-06 -7.868195729e-18 2.210222628e-06)
(2.897037744e-06 -6.124663716e-18 2.627619559e-06)
(2.784164448e-06 -3.660815864e-18 3.029548194e-06)
(2.677289207e-06 -4.975603932e-19 3.380481214e-06)
(2.576883851e-06 3.267150058e-18 3.634217412e-06)
(2.483521207e-06 7.430590619e-18 3.732028256e-06)
(2.397691854e-06 1.167090683e-17 3.602215551e-06)
(2.319970004e-06 1.552224076e-17 3.159673865e-06)
(2.250855835e-06 1.837168623e-17 2.306166948e-06)
(2.190913131e-06 1.945341174e-17 9.328745189e-07)
(2.140643233e-06 1.787081966e-17 -1.077986651e-06)
(2.100594106e-06 1.263496391e-17 -3.84551011e-06)
(2.071274674e-06 2.730507139e-18 -7.486340428e-06)
(2.053237265e-06 -1.276876559e-17 -1.209941314e-05)
)
;

boundaryField
{
    left
    {
        type            calculated;
        value           uniform (-7.800280224e-06 -6.811826298e-12 -1.3983669e-10);
    }
    right
    {
        type            calculated;
        value           uniform (2.047034624e-06 -6.811055346e-12 -1.775920584e-05);
    }
    beam
    {
        type            empty;
        value           nonuniform List<vector> 0();
    }
}


// ************************************************************************* //
