/*--------------------------------*- C++ -*----------------------------------*\
| =========                 |                                                 |
| \\      /  F ield         | OpenFOAM: The Open Source CFD Toolbox           |
|  \\    /   O peration     | Version:  2312                                  |
|   \\  /    A nd           | Website:  www.openfoam.com                      |
|    \\/     M anipulation  |                                                 |
\*---------------------------------------------------------------------------*/
FoamFile
{
    version     2.0;
    format      ascii;
    arch        "LSB;label=32;scalar=64";
    class       volVectorField;
    location    "0.02/beam";
    object      Theta;
}
// * * * * * * * * * * * * * * * * * * * * * * * * * * * * * * * * * * * * * //

dimensions      [0 0 0 0 0 0 0];

internalField   nonuniform List<vector> 
60
(
(5.873116895e-17 -4.327205052e-05 -1.946246232e-15)
(5.873714085e-17 -4.098044608e-05 -2.028303592e-15)
(5.874064031e-17 -4.005864305e-05 -2.131129119e-15)
(5.874431472e-17 -3.8314962e-05 -2.212296241e-15)
(5.874718385e-17 -3.705984581e-05 -2.246254848e-15)
(5.874943919e-17 -3.550758774e-05 -2.220917296e-15)
(5.875127475e-17 -3.412638204e-05 -2.134562234e-15)
(5.8752667e-17 -3.263359885e-05 -1.992757597e-15)
(5.875380774e-17 -3.119544479e-05 -1.805692834e-15)
(5.875470919e-17 -2.970911613e-05 -1.585968322e-15)
(5.875546396e-17 -2.823243912e-05 -1.346882738e-15)
(5.875609019e-17 -2.672688425e-05 -1.100961895e-15)
(5.875662423e-17 -2.521155188e-05 -8.593891792e-16)
(5.875708005e-17 -2.36713044e-05 -6.312798492e-16)
(5.875746939e-17 -2.211211103e-05 -4.235997668e-16)
(5.87578007e-17 -2.052841088e-05 -2.41112359e-16)
(5.875807529e-17 -1.892325572e-05 -8.650633446e-17)
(5.875830064e-17 -1.729698888e-05 3.917581644e-17)
(5.875847648e-17 -1.565488832e-05 1.36386907e-16)
(5.875861043e-17 -1.400357932e-05 2.06723202e-16)
(5.875870648e-17 -1.23542695e-05 2.521260148e-16)
(5.875877055e-17 -1.072196708e-05 2.76018598e-16)
(5.875880759e-17 -9.127199203e-06 2.80591664e-16)
(5.875883375e-17 -7.59575911e-06 2.696576543e-16)
(5.875884776e-17 -6.160100879e-06 2.443458339e-16)
(5.875886468e-17 -4.859047604e-06 2.098102758e-16)
(5.875888141e-17 -3.737921623e-06 1.636208883e-16)
(5.875889985e-17 -2.8479064e-06 1.152294271e-16)
(5.875892996e-17 -2.244850861e-06 5.306564566e-17)
(5.875894057e-17 -1.987153105e-06 8.798958649e-20)
(5.875889536e-17 -2.132644077e-06 -2.249285241e-17)
(5.875901196e-17 -2.734189102e-06 -8.142106166e-17)
(5.87591254e-17 -3.833824038e-06 -1.553436176e-16)
(5.875928851e-17 -5.455236436e-06 -2.211167716e-16)
(5.875952622e-17 -7.594458408e-06 -2.898104932e-16)
(5.87598852e-17 -1.020864266e-05 -3.513199521e-16)
(5.876042048e-17 -1.3203036e-05 -4.072507411e-16)
(5.876115418e-17 -1.641618615e-05 -4.510530039e-16)
(5.876207794e-17 -1.960396694e-05 -4.798546548e-16)
(5.876307283e-17 -2.242259639e-05 -4.873015246e-16)
(5.87638929e-17 -2.441233131e-05 -4.679478782e-16)
(5.876409708e-17 -2.498177898e-05 -4.14816219e-16)
(5.876305973e-17 -2.339675005e-05 -3.211003464e-16)
(5.876002504e-17 -1.877206565e-05 -1.794643874e-16)
(5.875432186e-17 -1.007534377e-05 1.703415925e-17)
(5.874577706e-17 3.86468526e-06 2.747125019e-16)
(5.873541585e-17 2.432363105e-05 5.988030365e-16)
(5.872650577e-17 5.264649554e-05 9.928738052e-16)
(5.872591358e-17 9.015734673e-05 1.458104769e-15)
(5.874567744e-17 0.0001380930068 1.992779354e-15)
(5.880437937e-17 0.0001974151735 2.591611745e-15)
(5.892790797e-17 0.0002687319845 3.245243021e-15)
(5.914835659e-17 0.0003519322339 3.939804257e-15)
(5.950054391e-17 0.0004461876707 4.656662412e-15)
(6.001379995e-17 0.0005492254372 5.372351822e-15)
(6.069987871e-17 0.000657709513 6.058814372e-15)
(6.15346889e-17 0.0007656727361 6.683824754e-15)
(6.243912495e-17 0.0008661366617 7.211777035e-15)
(6.326369031e-17 0.0009473781398 7.60445019e-15)
(6.378424332e-17 0.0009981774664 7.822326981e-15)
)
;

boundaryField
{
    left
    {
        type            momentBeamRotationNR;
        value           uniform (5.873116895e-17 -4.327205052e-05 -1.946246232e-15);
        momentSeries    
{
        file            "$FOAM_CASE/constant/beam/timeVsMoment";
        outOfBounds     clamp;
}
        moment          uniform (0 0 0);
    }
    right
    {
        type            momentBeamRotationNR;
        value           uniform (6.378424332e-17 0.0009981774664 7.822326981e-15);
        momentSeries    
{
        file            "$FOAM_CASE/constant/beam/timeVsMoment";
        outOfBounds     clamp;
}
        moment          uniform (0 0 0);
    }
    beam
    {
        type            empty;
    }
}


// ************************************************************************* //
