/*--------------------------------*- C++ -*----------------------------------*\
| =========                 |                                                 |
| \\      /  F ield         | OpenFOAM: The Open Source CFD Toolbox           |
|  \\    /   O peration     | Version:  2312                                  |
|   \\  /    A nd           | Website:  www.openfoam.com                      |
|    \\/     M anipulation  |                                                 |
\*---------------------------------------------------------------------------*/
FoamFile
{
    version     2.0;
    format      ascii;
    arch        "LSB;label=32;scalar=64";
    class       volVectorField;
    location    "0.02/beam";
    object      W;
}
// * * * * * * * * * * * * * * * * * * * * * * * * * * * * * * * * * * * * * //

dimensions      [0 1 0 0 0 0 0];

internalField   nonuniform List<vector> 
60
(
(1.12482172e-09 9.569603246e-16 1.011354953e-08)
(3.375663824e-09 8.690566631e-16 3.032284953e-08)
(5.626587495e-09 7.770522139e-16 5.047446129e-08)
(7.875131317e-09 6.809689206e-16 7.05091553e-08)
(1.011962002e-08 5.823334635e-16 9.034032895e-08)
(1.235794056e-08 4.835051812e-16 1.09844547e-07)
(1.458825271e-08 3.871468456e-16 1.288427547e-07)
(1.680858448e-08 2.958373004e-16 1.470842688e-07)
(1.901707018e-08 2.118040507e-16 1.642470499e-07)
(2.121181863e-08 1.367696016e-16 1.799161416e-07)
(2.339099328e-08 7.188217687e-17 1.935708191e-07)
(2.555277156e-08 1.772053946e-17 2.045862292e-07)
(2.769537284e-08 -2.566647688e-17 2.122217435e-07)
(2.98170476e-08 -5.867816748e-17 2.156429113e-07)
(3.191608818e-08 -8.207009375e-17 2.139185502e-07)
(3.399082756e-08 -9.685867385e-17 2.06064499e-07)
(3.603964482e-08 -1.042252277e-16 1.910764303e-07)
(3.806096693e-08 -1.054324677e-16 1.680029901e-07)
(4.005327264e-08 -1.017565947e-16 1.360304926e-07)
(4.201509553e-08 -9.442650227e-17 9.460427137e-08)
(4.394502757e-08 -8.458883164e-17 4.356437027e-08)
(4.584172281e-08 -7.327170971e-17 -1.667330784e-08)
(4.770379635e-08 -6.136880174e-17 -8.4895546e-08)
(4.95302529e-08 -4.964245263e-17 -1.588787945e-07)
(5.13198435e-08 -3.872446056e-17 -2.350952398e-07)
(5.307151822e-08 -2.912241344e-17 -3.084456403e-07)
(5.4784289e-08 -2.123124254e-17 -3.719667814e-07)
(5.645726328e-08 -1.534641491e-17 -4.165624412e-07)
(5.80896033e-08 -1.168120994e-17 -4.307592184e-07)
(5.968055109e-08 -1.037392647e-17 -4.005675825e-07)
(6.122937256e-08 -1.032684174e-17 -3.094041754e-07)
(6.273536788e-08 -1.155762188e-17 -1.38263053e-07)
(6.419779814e-08 -1.519984801e-17 1.34000169e-07)
(6.561588586e-08 -2.114845194e-17 5.29939176e-07)
(6.698874145e-08 -2.92222581e-17 1.072601604e-06)
(6.831538951e-08 -3.915232926e-17 1.783933105e-06)
(6.959475342e-08 -5.056800031e-17 2.682910875e-06)
(7.082579057e-08 -6.298153122e-17 3.782758861e-06)
(7.2007637e-08 -7.577532838e-17 5.087809e-06)
(7.313995305e-08 -8.81904459e-17 6.58929304e-06)
(7.422328977e-08 -9.932147424e-17 8.260740797e-06)
(7.52595976e-08 -1.081228766e-16 1.005234622e-05)
(7.625256397e-08 -1.134217104e-16 1.188499911e-05)
(7.720768453e-08 -1.139469887e-16 1.364373282e-05)
(7.813148019e-08 -1.083652334e-16 1.517108991e-05)
(7.902938166e-08 -9.534477615e-17 1.626094438e-05)
(7.990134498e-08 -7.362162197e-17 1.665278006e-05)
(8.073438589e-08 -4.208953892e-17 1.602841228e-05)
(8.149106209e-08 1.097897167e-19 1.401004127e-05)
(8.209358014e-08 5.347622076e-17 1.016390512e-05)
(8.240368493e-08 1.180629589e-16 4.006539296e-06)
(8.220080766e-08 1.933837679e-16 -4.978917067e-06)
(8.116192936e-08 2.783695446e-16 -1.73221679e-05)
(7.885217362e-08 3.71353678e-16 -3.352973422e-05)
(7.473461857e-08 4.701402123e-16 -5.404274737e-05)
(6.821695496e-08 5.721480941e-16 -7.917377452e-05)
(5.874456531e-08 6.746739263e-16 -0.0001090357088)
(4.59573798e-08 7.752772101e-16 -0.0001434458115)
(2.990108198e-08 8.723061945e-16 -0.0001818210404)
(1.127322912e-08 9.655682606e-16 -0.0002230492756)
)
;

boundaryField
{
    left
    {
        type            fixedValue;
        value           uniform (0 0 0);
    }
    right
    {
        type            fixedValue;
        value           uniform (1.449706577e-09 1.135163187e-17 -0.0002442036003);
    }
    beam
    {
        type            empty;
    }
}


// ************************************************************************* //
