/*--------------------------------*- C++ -*----------------------------------*\
| =========                 |                                                 |
| \\      /  F ield         | OpenFOAM: The Open Source CFD Toolbox           |
|  \\    /   O peration     | Version:  2312                                  |
|   \\  /    A nd           | Website:  www.openfoam.com                      |
|    \\/     M anipulation  |                                                 |
\*---------------------------------------------------------------------------*/
FoamFile
{
    version     2.0;
    format      ascii;
    arch        "LSB;label=32;scalar=64";
    class       surfaceVectorField;
    location    "0.04/beam";
    object      Gamma;
}
// * * * * * * * * * * * * * * * * * * * * * * * * * * * * * * * * * * * * * //

dimensions      [0 0 0 0 0 0 0];

oriented        oriented;

internalField   nonuniform List<vector> 
59
(
(4.495338417e-06 2.977893119e-20 4.10643629e-10)
(4.495372712e-06 2.758496362e-20 4.306312376e-10)
(4.495429868e-06 2.362311714e-20 4.619545955e-10)
(4.495509885e-06 1.782580992e-20 5.016022955e-10)
(4.49561276e-06 1.043098996e-20 5.453100463e-10)
(4.495738492e-06 1.972217386e-21 5.875271283e-10)
(4.495887077e-06 -6.807664093e-21 6.213911928e-10)
(4.496058511e-06 -1.508521447e-20 6.387254838e-10)
(4.496252792e-06 -2.208278188e-20 6.300806589e-10)
(4.496469914e-06 -2.719119948e-20 5.848334825e-10)
(4.496709873e-06 -3.005126694e-20 4.913659252e-10)
(4.496972664e-06 -3.060390213e-20 3.373501348e-10)
(4.497258282e-06 -2.910323121e-20 1.101538379e-10)
(4.497566721e-06 -2.609965404e-20 -2.026021163e-10)
(4.497897976e-06 -2.239558655e-20 -6.123288668e-10)
(4.498252038e-06 -1.898339583e-20 -1.128570162e-09)
(4.4986289e-06 -1.697079464e-20 -1.757921921e-09)
(4.499028552e-06 -1.749950392e-20 -2.502763657e-09)
(4.499450984e-06 -2.166289155e-20 -3.359819397e-09)
(4.499896181e-06 -3.042229513e-20 -4.318569141e-09)
(4.500364125e-06 -4.45290299e-20 -5.359558311e-09)
(4.500854797e-06 -6.444409796e-20 -6.452661489e-09)
(4.501368116e-06 -9.025802699e-20 -7.555256197e-09)
(4.501904234e-06 -1.216335051e-19 -8.611287449e-09)
(4.502462887e-06 -1.576937841e-19 -9.548617729e-09)
(4.503044309e-06 -1.970040186e-19 -1.027989227e-08)
(4.503648231e-06 -2.374362638e-19 -1.070057308e-08)
(4.504274933e-06 -2.761739127e-19 -1.069065973e-08)
(4.504924164e-06 -3.095852648e-19 -1.011537954e-08)
(4.505596279e-06 -3.333719276e-19 -8.827647411e-09)
(4.506291069e-06 -3.421380875e-19 -6.673039962e-09)
(4.507008969e-06 -3.296894414e-19 -3.492758621e-09)
(4.507749796e-06 -2.893253289e-19 8.654200363e-10)
(4.508514015e-06 -2.135801064e-19 6.544278749e-09)
(4.509301358e-06 -9.461792376e-20 1.365882403e-08)
(4.510112145e-06 7.562120995e-20 2.229458368e-08)
(4.510945778e-06 3.048117836e-19 3.24812405e-08)
(4.511802107e-06 6.000479147e-19 4.419365403e-08)
(4.512679825e-06 9.667912298e-19 5.731814752e-08)
(4.513577925e-06 1.408636984e-18 7.165819986e-08)
(4.514494063e-06 1.925739114e-18 8.689596074e-08)
(4.515426198e-06 2.514564454e-18 1.026046169e-07)
(4.51637106e-06 3.165788763e-18 1.182099911e-07)
(4.517326104e-06 3.864078965e-18 1.330110247e-07)
(4.518288243e-06 4.58557238e-18 1.461486464e-07)
(4.519256203e-06 5.297745806e-18 1.566343038e-07)
(4.520229581e-06 5.956770521e-18 1.633350871e-07)
(4.521211505e-06 6.507525925e-18 1.650074808e-07)
(4.52220778e-06 6.881368246e-18 1.603083158e-07)
(4.52322942e-06 6.996327064e-18 1.478267189e-07)
(4.524291179e-06 6.756118578e-18 1.261291146e-07)
(4.525413096e-06 6.050522373e-18 9.377683034e-08)
(4.526617249e-06 4.756794402e-18 4.940960572e-08)
(4.527927242e-06 2.740153111e-18 -8.270012604e-09)
(4.52936188e-06 -1.409469094e-19 -8.037629194e-08)
(4.530931747e-06 -4.034375332e-18 -1.679139948e-07)
(4.532628981e-06 -9.083444953e-18 -2.716301677e-07)
(4.534420751e-06 -1.542677473e-17 -3.921747077e-07)
(4.536235194e-06 -2.317999708e-17 -5.299396816e-07)
)
;

boundaryField
{
    left
    {
        type            calculated;
        value           uniform (-4.495327031e-06 -4.517224955e-14 -4.038280883e-10);
    }
    right
    {
        type            calculated;
        value           uniform (4.537951899e-06 -4.519955448e-14 -6.85335246e-07);
    }
    beam
    {
        type            empty;
        value           nonuniform List<vector> 0();
    }
}


// ************************************************************************* //
