/*--------------------------------*- C++ -*----------------------------------*\
| =========                 |                                                 |
| \\      /  F ield         | OpenFOAM: The Open Source CFD Toolbox           |
|  \\    /   O peration     | Version:  2312                                  |
|   \\  /    A nd           | Website:  www.openfoam.com                      |
|    \\/     M anipulation  |                                                 |
\*---------------------------------------------------------------------------*/
FoamFile
{
    version     2.0;
    format      ascii;
    arch        "LSB;label=32;scalar=64";
    class       surfaceVectorField;
    location    "0.04/beam";
    object      K;
}
// * * * * * * * * * * * * * * * * * * * * * * * * * * * * * * * * * * * * * //

dimensions      [0 -1 0 0 0 0 0];

oriented        oriented;

internalField   nonuniform List<vector> 
59
(
(-1.084526994e-20 4.507037371e-06 -3.334158936e-16)
(-2.168924367e-20 9.162690449e-06 -6.509260773e-16)
(-3.253058046e-20 1.410237207e-05 -9.343737751e-16)
(-4.336780255e-20 1.943491655e-05 -1.163809601e-15)
(-5.420106094e-20 2.522889257e-05 -1.320224929e-15)
(-6.503038758e-20 3.149854948e-05 -1.388884673e-15)
(-7.585586264e-20 3.818943841e-05 -1.362120775e-15)
(-8.667664814e-20 4.516387798e-05 -1.240941206e-15)
(-9.749434747e-20 5.218663582e-05 -1.035208581e-15)
(-1.083289897e-19 5.891138721e-05 -7.624617533e-16)
(-1.191708071e-19 6.486871067e-05 -4.456079958e-16)
(-1.300216765e-19 6.945665141e-05 -1.098680572e-16)
(-1.408776442e-19 7.1935105e-05 2.206152138e-16)
(-1.517334819e-19 7.142553e-05 5.261545517e-16)
(-1.625828837e-19 6.691770223e-05 7.945504598e-16)
(-1.734168066e-19 5.728540286e-05 1.023538687e-15)
(-1.842300907e-19 4.131306339e-05 1.222478912e-15)
(-1.950209201e-19 1.773541116e-05 1.413180825e-15)
(-2.057930233e-19 -1.470789947e-05 1.629825969e-15)
(-2.165597649e-19 -5.720089932e-05 1.917971355e-15)
(-2.273465026e-19 -0.0001107617676 2.332653516e-15)
(-2.382012451e-19 -0.0001761323116 2.935598349e-15)
(-2.491699071e-19 -0.0002536557945 3.791626933e-15)
(-2.603235279e-19 -0.0003431293943 4.96419682e-15)
(-2.717174711e-19 -0.0004436368137 6.510007548e-15)
(-2.834473658e-19 -0.0005533810985 8.472986822e-15)
(-2.955926111e-19 -0.0006695032814 1.087734756e-14)
(-3.082016487e-19 -0.0007879017008 1.371993817e-14)
(-3.213390795e-19 -0.0009030646309 1.696191933e-14)
(-3.477859263e-19 -0.001007920378 2.052056503e-14)
(-3.761552069e-19 -0.001093728467 2.425949825e-14)
(-3.912192751e-19 -0.001150014813 2.797819766e-14)
(-4.070807877e-19 -0.001164583818 3.140477328e-14)
(-4.239666407e-19 -0.001123607016 3.418893042e-14)
(-4.421963815e-19 -0.001011828955 3.589568321e-14)
(-4.623934968e-19 -0.0008128840918 3.600206574e-14)
(-4.855620848e-19 -0.0005097689125 3.389802138e-14)
(-5.133408167e-19 -8.545445451e-05 2.889174597e-14)
(-5.48146862e-19 0.0004763203576 2.022193006e-14)
(-5.934946981e-19 0.001190100166 7.077122575e-15)
(-6.540689225e-19 0.002067583231 -1.137490151e-14)
(-7.359880084e-19 0.003116346827 -3.594768841e-14)
(-8.468294001e-19 0.004338428588 -6.738365462e-14)
(-9.953155106e-19 0.005728808642 -1.06288783e-13)
(-1.190524277e-18 0.007273832757 -1.530521641e-13)
(-1.44117991e-18 0.008949621171 -2.077508584e-13)
(-1.752590388e-18 0.01072055282 -2.700393945e-13)
(-2.125489181e-18 0.01253785423 -3.390247058e-13)
(-2.551342443e-18 0.01433843557 -4.131287857e-13)
(-3.010251718e-18 0.01604396444 -4.899400883e-13)
(-3.466223983e-18 0.01756036515 -5.660605389e-13)
(-3.866887888e-18 0.01877766512 -6.369491868e-13)
(-4.143140143e-18 0.01957040018 -6.967757284e-13)
(-4.221604786e-18 0.01979839664 -7.382845784e-13)
(-4.022165688e-18 0.01930813232 -7.526907581e-13)
(-3.491239234e-18 0.01793435726 -7.296074625e-13)
(-2.642611904e-18 0.01550212578 -6.570362027e-13)
(-1.583020763e-18 0.0118287616 -5.214180029e-13)
(-5.619340802e-19 0.006725822398 -3.07786502e-13)
)
;

boundaryField
{
    left
    {
        type            calculated;
        value           uniform (4.833033586e-35 -9.629677682e-35 5.394821483e-37);
    }
    right
    {
        type            calculated;
        value           uniform (1.54260698e-32 -3.898564092e-30 -2.300543759e-34);
    }
    beam
    {
        type            empty;
        value           nonuniform List<vector> 0();
    }
}


// ************************************************************************* //
