/*--------------------------------*- C++ -*----------------------------------*\
| =========                 |                                                 |
| \\      /  F ield         | OpenFOAM: The Open Source CFD Toolbox           |
|  \\    /   O peration     | Version:  2312                                  |
|   \\  /    A nd           | Website:  www.openfoam.com                      |
|    \\/     M anipulation  |                                                 |
\*---------------------------------------------------------------------------*/
FoamFile
{
    version     2.0;
    format      ascii;
    arch        "LSB;label=32;scalar=64";
    class       surfaceVectorField;
    location    "0.04/beam";
    object      M;
}
// * * * * * * * * * * * * * * * * * * * * * * * * * * * * * * * * * * * * * //

dimensions      [1 2 -2 0 0 0 0];

oriented        oriented;

internalField   nonuniform List<vector> 
59
(
(-9.182443526e-24 2.718581844e-09 -2.010963164e-19)
(-1.829771557e-23 5.526806601e-09 -3.925980206e-19)
(-2.727620585e-23 8.506353397e-09 -5.635527344e-19)
(-3.603746292e-23 1.172286958e-08 -7.019268939e-19)
(-4.448040172e-23 1.521771479e-08 -7.962545255e-19)
(-5.24837552e-23 1.899948407e-08 -8.376475839e-19)
(-5.992516847e-23 2.30353346e-08 -8.214809901e-19)
(-6.6721512e-23 2.724221891e-08 -7.483632113e-19)
(-7.288632389e-23 3.147824812e-08 -6.24244047e-19)
(-7.85931112e-23 3.553452401e-08 -4.597038772e-19)
(-8.423381563e-23 3.912789811e-08 -2.685616611e-19)
(-9.04526843e-23 4.189527973e-08 -6.603226919e-20)
(-9.81372121e-23 4.339024824e-08 1.333191278e-19)
(-1.083591109e-22 4.308287974e-08 3.176144289e-19)
(-1.222632964e-22 4.036382114e-08 4.794915976e-19)
(-1.409159292e-22 3.455375301e-08 6.175810018e-19)
(-1.651349954e-22 2.491946145e-08 7.375240916e-19)
(-1.953380807e-22 1.069775172e-08 8.524718214e-19)
(-2.314478842e-22 -8.871599049e-09 9.830376885e-19)
(-2.729002943e-22 -3.450278166e-08 1.156696978e-18)
(-3.187906068e-22 -6.680994752e-08 1.406643458e-18)
(-3.681795764e-22 -1.062405445e-07 1.770106776e-18)
(-4.205799382e-22 -1.530016241e-07 2.286184922e-18)
(-4.766017932e-22 -2.069708468e-07 2.993155298e-18)
(-5.386820971e-22 -2.675955151e-07 3.92522142e-18)
(-6.119005387e-22 -3.337917313e-07 5.108886039e-18)
(-7.046881497e-22 -4.038350063e-07 6.558763866e-18)
(-8.294354127e-22 -4.752512753e-07 8.272967997e-18)
(-1.002753917e-21 -5.447159424e-07 1.022809002e-17)
(-1.244691014e-21 -6.079634612e-07 1.237425507e-17)
(-1.579242468e-21 -6.597216994e-07 1.462923244e-17)
(-2.034494828e-21 -6.936728353e-07 1.687210645e-17)
(-2.639327141e-21 -7.02460655e-07 1.893891874e-17)
(-3.421446363e-21 -6.777440214e-07 2.061842394e-17)
(-4.406967909e-21 -6.103210601e-07 2.164829706e-17)
(-5.620767244e-21 -4.903203038e-07 2.171314855e-17)
(-7.089590465e-21 -3.074854713e-07 2.044505917e-17)
(-8.8500524e-21 -5.15449306e-08 1.742680078e-17)
(-1.096391542e-20 2.873097712e-07 1.219921796e-17)
(-1.35437754e-20 7.178517587e-07 4.272904636e-18)
(-1.679193749e-20 1.247137258e-06 -6.854085622e-18)
(-2.105516911e-20 1.879736777e-06 -2.167244666e-17)
(-2.68952498e-20 2.616879386e-06 -4.062998691e-17)
(-3.51732514e-20 3.455537169e-06 -6.409224412e-17)
(-4.713768882e-20 4.387474085e-06 -9.229395902e-17)
(-6.450123353e-20 5.398286196e-06 -1.252816944e-16)
(-8.947556274e-20 6.466487371e-06 -1.628471871e-16)
(-1.247260174e-19 7.562658144e-06 -2.044519147e-16)
(-1.731861121e-19 8.648743598e-06 -2.491442542e-16)
(-2.376683989e-19 9.677494734e-06 -2.954698515e-16)
(-3.201917981e-19 1.059216641e-05 -3.413793412e-16)
(-4.209614676e-19 1.132642471e-05 -3.841340421e-16)
(-5.369561614e-19 1.18045914e-05 -4.202176082e-16)
(-6.601362046e-19 1.194211567e-05 -4.452540438e-16)
(-7.753859369e-19 1.16463951e-05 -4.539449156e-16)
(-8.584158729e-19 1.081775322e-05 -4.400256758e-16)
(-8.740682835e-19 9.350665242e-06 -3.962597307e-16)
(-7.755842629e-19 7.134943392e-06 -3.144693301e-16)
(-5.05660755e-19 4.056921909e-06 -1.856279065e-16)
)
;

boundaryField
{
    left
    {
        type            calculated;
        value           uniform (5.8304266e-38 -5.808486762e-38 3.256457083e-40);
    }
    right
    {
        type            calculated;
        value           uniform (1.86072824e-35 -2.35155928e-33 -3.218202825e-37);
    }
    beam
    {
        type            empty;
        value           nonuniform List<vector> 0();
    }
}


// ************************************************************************* //
