/*--------------------------------*- C++ -*----------------------------------*\
| =========                 |                                                 |
| \\      /  F ield         | OpenFOAM: The Open Source CFD Toolbox           |
|  \\    /   O peration     | Version:  2312                                  |
|   \\  /    A nd           | Website:  www.openfoam.com                      |
|    \\/     M anipulation  |                                                 |
\*---------------------------------------------------------------------------*/
FoamFile
{
    version     2.0;
    format      ascii;
    arch        "LSB;label=32;scalar=64";
    class       pointVectorField;
    location    "0.04/beam";
    object      pointW;
}
// * * * * * * * * * * * * * * * * * * * * * * * * * * * * * * * * * * * * * //

dimensions      [0 1 0 0 0 0 0];

internalField   nonuniform List<vector> 
1952
(
(1.630267649e-08 2.278092522e-17 -3.633060866e-12)
(1.598942056e-08 2.233456475e-17 -3.563256461e-12)
(1.506171675e-08 2.103352215e-17 -3.356521224e-12)
(1.355518642e-08 1.908195824e-17 -3.020793685e-12)
(1.152774481e-08 1.604619215e-17 -2.568980619e-12)
(9.057277973e-09 1.25767452e-17 -2.018438802e-12)
(6.238748991e-09 8.67361738e-18 -1.390329908e-12)
(3.180493227e-09 4.33680869e-18 -7.087970618e-13)
(-4.533943186e-18 0 -2.278094372e-17)
(-3.180493236e-09 -4.33680869e-18 7.087523927e-13)
(-6.238748999e-09 -8.67361738e-18 1.390287841e-12)
(-9.05727798e-09 -1.25767452e-17 2.018400638e-12)
(-1.152774482e-08 -1.604619215e-17 2.568948526e-12)
(-1.355518642e-08 -1.908195824e-17 3.020768531e-12)
(-1.506171676e-08 -2.103352215e-17 3.356503443e-12)
(-1.598942056e-08 -2.233456475e-17 3.56324692e-12)
(-1.630267649e-08 -2.278092522e-17 3.633060866e-12)
(-1.598942056e-08 -2.233456475e-17 3.563256461e-12)
(-1.506171675e-08 -2.103352215e-17 3.356521224e-12)
(-1.355518642e-08 -1.908195824e-17 3.020793685e-12)
(-1.152774481e-08 -1.604619215e-17 2.568980619e-12)
(-9.057277973e-09 -1.25767452e-17 2.018438802e-12)
(-6.238748991e-09 -8.67361738e-18 1.390329908e-12)
(-3.180493227e-09 -4.33680869e-18 7.087970618e-13)
(4.53394164e-18 0 2.278094372e-17)
(3.180493236e-09 4.33680869e-18 -7.087523927e-13)
(6.238748999e-09 8.67361738e-18 -1.390287841e-12)
(9.05727798e-09 1.25767452e-17 -2.018400638e-12)
(1.152774482e-08 1.604619215e-17 -2.568948526e-12)
(1.355518642e-08 1.908195824e-17 -3.020768531e-12)
(1.506171676e-08 2.103352215e-17 -3.356503443e-12)
(1.598942056e-08 2.233456475e-17 -3.56324692e-12)
(2.14894562e-07 9.724340284e-16 1.782568619e-07)
(2.145889748e-07 9.719872476e-16 1.78256928e-07)
(2.136839819e-07 9.705777848e-16 1.782571238e-07)
(2.122143326e-07 9.688430613e-16 1.782574418e-07)
(2.102365242e-07 9.658072953e-16 1.782578698e-07)
(2.078265363e-07 9.623378483e-16 1.782583912e-07)
(2.05077007e-07 9.584347205e-16 1.782589861e-07)
(2.020936196e-07 9.540979118e-16 1.782596317e-07)
(1.989909872e-07 9.497611031e-16 1.78260303e-07)
(1.958883549e-07 9.454242944e-16 1.782609743e-07)
(1.929049675e-07 9.410874857e-16 1.782616199e-07)
(1.901554382e-07 9.371843579e-16 1.782622148e-07)
(1.877454503e-07 9.337149109e-16 1.782627363e-07)
(1.857676419e-07 9.306791449e-16 1.782631642e-07)
(1.842979926e-07 9.285107405e-16 1.782634822e-07)
(1.833929997e-07 9.273181181e-16 1.78263678e-07)
(1.830874125e-07 9.268720167e-16 1.782637442e-07)
(1.833929997e-07 9.273181181e-16 1.78263678e-07)
(1.842979926e-07 9.285107405e-16 1.782634822e-07)
(1.857676419e-07 9.306791449e-16 1.782631642e-07)
(1.877454503e-07 9.337149109e-16 1.782627363e-07)
(1.901554382e-07 9.371843579e-16 1.782622148e-07)
(1.929049675e-07 9.410874857e-16 1.782616199e-07)
(1.958883549e-07 9.454242944e-16 1.782609744e-07)
(1.989909873e-07 9.497611031e-16 1.782603031e-07)
(2.020936196e-07 9.540979118e-16 1.782596317e-07)
(2.05077007e-07 9.584347205e-16 1.782589862e-07)
(2.078265363e-07 9.623378483e-16 1.782583913e-07)
(2.102365242e-07 9.658072953e-16 1.782578698e-07)
(2.122143326e-07 9.688430613e-16 1.782574418e-07)
(2.136839819e-07 9.705777848e-16 1.782571238e-07)
(2.145889748e-07 9.719872476e-16 1.78256928e-07)
(4.126787421e-07 9.214433025e-16 3.476105203e-07)
(4.123964123e-07 9.209213253e-16 3.476105815e-07)
(4.115602959e-07 9.198371231e-16 3.476107626e-07)
(4.102024974e-07 9.176687188e-16 3.476110568e-07)
(4.083752145e-07 9.146329527e-16 3.476114527e-07)
(4.06148644e-07 9.111635058e-16 3.476119351e-07)
(4.036083737e-07 9.072603779e-16 3.476124854e-07)
(4.008520435e-07 9.029235692e-16 3.476130826e-07)
(3.979855438e-07 8.985867606e-16 3.476137036e-07)
(3.951190441e-07 8.942499519e-16 3.476143246e-07)
(3.923627139e-07 8.899131432e-16 3.476149218e-07)
(3.898224436e-07 8.860100154e-16 3.476154722e-07)
(3.875958731e-07 8.825405684e-16 3.476159546e-07)
(3.857685902e-07 8.795048023e-16 3.476163505e-07)
(3.844107917e-07 8.777700788e-16 3.476166446e-07)
(3.835746753e-07 8.762521958e-16 3.476168258e-07)
(3.832923455e-07 8.758811303e-16 3.47616887e-07)
(3.835746753e-07 8.762521958e-16 3.476168258e-07)
(3.844107917e-07 8.777700788e-16 3.476166447e-07)
(3.857685902e-07 8.795048023e-16 3.476163505e-07)
(3.875958731e-07 8.825405684e-16 3.476159546e-07)
(3.898224436e-07 8.860100154e-16 3.476154722e-07)
(3.923627139e-07 8.899131432e-16 3.476149219e-07)
(3.951190441e-07 8.942499519e-16 3.476143247e-07)
(3.979855438e-07 8.985867606e-16 3.476137037e-07)
(4.008520435e-07 9.029235692e-16 3.476130826e-07)
(4.036083737e-07 9.072603779e-16 3.476124855e-07)
(4.06148644e-07 9.111635058e-16 3.476119351e-07)
(4.083752145e-07 9.146329527e-16 3.476114527e-07)
(4.102024974e-07 9.176687188e-16 3.476110568e-07)
(4.115602959e-07 9.198371231e-16 3.476107626e-07)
(4.123964123e-07 9.209213253e-16 3.476105815e-07)
(6.096177876e-07 8.691937798e-16 4.988645117e-07)
(6.093750448e-07 8.687712008e-16 4.98864569e-07)
(6.086561647e-07 8.675785784e-16 4.988647386e-07)
(6.074887505e-07 8.656270145e-16 4.98865014e-07)
(6.059176809e-07 8.625912484e-16 4.988653847e-07)
(6.040033098e-07 8.591218015e-16 4.988658364e-07)
(6.018192245e-07 8.552186737e-16 4.988663518e-07)
(5.994493743e-07 8.500145032e-16 4.988669109e-07)
(5.969848019e-07 8.456776945e-16 4.988674924e-07)
(5.945202296e-07 8.413408858e-16 4.988680739e-07)
(5.921503794e-07 8.378714389e-16 4.988686331e-07)
(5.899662941e-07 8.339683111e-16 4.988691484e-07)
(5.88051923e-07 8.304988641e-16 4.988696001e-07)
(5.864808533e-07 8.27463098e-16 4.988699708e-07)
(5.853134391e-07 8.255115341e-16 4.988702463e-07)
(5.845945591e-07 8.241020713e-16 4.988704159e-07)
(5.843518162e-07 8.236316088e-16 4.988704732e-07)
(5.845945591e-07 8.241020713e-16 4.988704159e-07)
(5.853134391e-07 8.255115341e-16 4.988702463e-07)
(5.864808533e-07 8.27463098e-16 4.988699709e-07)
(5.88051923e-07 8.304988641e-16 4.988696002e-07)
(5.899662941e-07 8.339683111e-16 4.988691485e-07)
(5.921503794e-07 8.378714389e-16 4.988686332e-07)
(5.945202296e-07 8.413408858e-16 4.98868074e-07)
(5.969848019e-07 8.456776945e-16 4.988674925e-07)
(5.994493743e-07 8.500145032e-16 4.98866911e-07)
(6.018192245e-07 8.552186737e-16 4.988663518e-07)
(6.040033098e-07 8.591218015e-16 4.988658365e-07)
(6.059176809e-07 8.625912484e-16 4.988653848e-07)
(6.074887505e-07 8.656270145e-16 4.988650141e-07)
(6.086561647e-07 8.675785784e-16 4.988647386e-07)
(6.093750448e-07 8.687712008e-16 4.98864569e-07)
(8.056526921e-07 8.151395272e-16 6.222814788e-07)
(8.054670158e-07 8.146695124e-16 6.222815319e-07)
(8.049171374e-07 8.135853102e-16 6.222816891e-07)
(8.04024171e-07 8.114169059e-16 6.222819443e-07)
(8.028224445e-07 8.083811398e-16 6.222822878e-07)
(8.013581235e-07 8.049116929e-16 6.222827063e-07)
(7.996874954e-07 8.01008565e-16 6.222831838e-07)
(7.97874774e-07 7.962380755e-16 6.222837019e-07)
(7.959895987e-07 7.919012668e-16 6.222842407e-07)
(7.941044233e-07 7.875644581e-16 6.222847795e-07)
(7.922917019e-07 7.836613303e-16 6.222852976e-07)
(7.906210738e-07 7.797582025e-16 6.222857751e-07)
(7.891567528e-07 7.762887555e-16 6.222861937e-07)
(7.879550263e-07 7.732529894e-16 6.222865371e-07)
(7.870620599e-07 7.715182659e-16 6.222867924e-07)
(7.865121815e-07 7.700003829e-16 6.222869495e-07)
(7.863265052e-07 7.695773592e-16 6.222870026e-07)
(7.865121815e-07 7.700003829e-16 6.222869496e-07)
(7.870620599e-07 7.715182659e-16 6.222867924e-07)
(7.879550263e-07 7.732529894e-16 6.222865372e-07)
(7.891567528e-07 7.762887555e-16 6.222861937e-07)
(7.906210738e-07 7.797582025e-16 6.222857752e-07)
(7.922917019e-07 7.836613303e-16 6.222852977e-07)
(7.941044233e-07 7.875644581e-16 6.222847796e-07)
(7.959895987e-07 7.919012668e-16 6.222842408e-07)
(7.97874774e-07 7.962380755e-16 6.222837019e-07)
(7.996874954e-07 8.01008565e-16 6.222831838e-07)
(8.013581235e-07 8.049116929e-16 6.222827063e-07)
(8.028224445e-07 8.083811398e-16 6.222822878e-07)
(8.04024171e-07 8.114169059e-16 6.222819443e-07)
(8.049171374e-07 8.135853102e-16 6.222816891e-07)
(8.054670158e-07 8.146695124e-16 6.222815319e-07)
(1.000709135e-06 7.588389737e-16 7.073758283e-07)
(1.000599452e-06 7.583994197e-16 7.073758776e-07)
(1.000274626e-06 7.569899568e-16 7.073760236e-07)
(9.997471296e-07 7.554720738e-16 7.073762607e-07)
(9.990372414e-07 7.524363077e-16 7.073765797e-07)
(9.981722326e-07 7.489668608e-16 7.073769685e-07)
(9.971853532e-07 7.450637329e-16 7.07377412e-07)
(9.96114536e-07 7.407269242e-16 7.073778932e-07)
(9.950009186e-07 7.363901156e-16 7.073783937e-07)
(9.938873012e-07 7.320533069e-16 7.073788942e-07)
(9.92816484e-07 7.277164982e-16 7.073793755e-07)
(9.918296046e-07 7.238133704e-16 7.07379819e-07)
(9.909645957e-07 7.203439234e-16 7.073802077e-07)
(9.902547077e-07 7.173081573e-16 7.073805268e-07)
(9.897272114e-07 7.149229125e-16 7.073807638e-07)
(9.894023853e-07 7.137302901e-16 7.073809098e-07)
(9.892927019e-07 7.132768898e-16 7.073809591e-07)
(9.894023853e-07 7.137302901e-16 7.073809098e-07)
(9.897272114e-07 7.149229125e-16 7.073807639e-07)
(9.902547077e-07 7.173081573e-16 7.073805268e-07)
(9.909645958e-07 7.203439234e-16 7.073802078e-07)
(9.918296046e-07 7.238133704e-16 7.07379819e-07)
(9.92816484e-07 7.277164982e-16 7.073793755e-07)
(9.938873012e-07 7.320533069e-16 7.073788942e-07)
(9.950009186e-07 7.363901156e-16 7.073783938e-07)
(9.96114536e-07 7.407269242e-16 7.073778933e-07)
(9.971853532e-07 7.450637329e-16 7.07377412e-07)
(9.981722326e-07 7.489668608e-16 7.073769685e-07)
(9.990372415e-07 7.524363077e-16 7.073765797e-07)
(9.997471296e-07 7.554720738e-16 7.073762607e-07)
(1.000274626e-06 7.569899568e-16 7.073760236e-07)
(1.000599452e-06 7.583994197e-16 7.073758776e-07)
(1.194704797e-06 6.999908691e-16 7.427846801e-07)
(1.194691632e-06 6.995272417e-16 7.427847256e-07)
(1.194652642e-06 6.982261991e-16 7.427848601e-07)
(1.194589325e-06 6.964914756e-16 7.427850787e-07)
(1.194504115e-06 6.934557095e-16 7.427853728e-07)
(1.194400286e-06 6.899862626e-16 7.427857312e-07)
(1.194281828e-06 6.860831347e-16 7.427861401e-07)
(1.194153295e-06 6.817463261e-16 7.427865837e-07)
(1.194019624e-06 6.774095174e-16 7.427870451e-07)
(1.193885954e-06 6.730727087e-16 7.427875065e-07)
(1.193757421e-06 6.687359e-16 7.427879501e-07)
(1.193638963e-06 6.648327722e-16 7.42788359e-07)
(1.193535134e-06 6.613633252e-16 7.427887174e-07)
(1.193449924e-06 6.583275591e-16 7.427890115e-07)
(1.193386607e-06 6.561591548e-16 7.427892301e-07)
(1.193347617e-06 6.548581122e-16 7.427893647e-07)
(1.193334452e-06 6.5442879e-16 7.427894101e-07)
(1.193347617e-06 6.548581122e-16 7.427893647e-07)
(1.193386607e-06 6.561591548e-16 7.427892301e-07)
(1.193449924e-06 6.583275591e-16 7.427890116e-07)
(1.193535134e-06 6.613633252e-16 7.427887174e-07)
(1.193638963e-06 6.648327722e-16 7.427883591e-07)
(1.193757421e-06 6.687359e-16 7.427879502e-07)
(1.193885954e-06 6.730727087e-16 7.427875065e-07)
(1.194019624e-06 6.774095174e-16 7.427870451e-07)
(1.194153295e-06 6.817463261e-16 7.427865838e-07)
(1.194281828e-06 6.860831347e-16 7.427861401e-07)
(1.194400286e-06 6.899862626e-16 7.427857312e-07)
(1.194504115e-06 6.934557095e-16 7.427853728e-07)
(1.194589325e-06 6.964914756e-16 7.427850787e-07)
(1.194652642e-06 6.982261991e-16 7.427848602e-07)
(1.194691632e-06 6.995272417e-16 7.427847256e-07)
(1.38756066e-06 6.38465154e-16 7.162423001e-07)
(1.387666072e-06 6.379445583e-16 7.162423418e-07)
(1.387978249e-06 6.368603561e-16 7.162424653e-07)
(1.388485204e-06 6.349087922e-16 7.162426658e-07)
(1.389167449e-06 6.318730261e-16 7.162429357e-07)
(1.389998774e-06 6.284035792e-16 7.162432645e-07)
(1.390947223e-06 6.245004514e-16 7.162436397e-07)
(1.391976342e-06 6.201636427e-16 7.162440468e-07)
(1.393046595e-06 6.15826834e-16 7.162444701e-07)
(1.394116847e-06 6.114900253e-16 7.162448935e-07)
(1.395145966e-06 6.071532166e-16 7.162453006e-07)
(1.396094415e-06 6.032500888e-16 7.162456757e-07)
(1.39692574e-06 5.997806418e-16 7.162460046e-07)
(1.397607985e-06 5.967448757e-16 7.162462745e-07)
(1.39811494e-06 5.947933118e-16 7.16246475e-07)
(1.398427117e-06 5.932754288e-16 7.162465985e-07)
(1.398532529e-06 5.9290316e-16 7.162466402e-07)
(1.398427117e-06 5.932754288e-16 7.162465985e-07)
(1.39811494e-06 5.947933118e-16 7.16246475e-07)
(1.397607985e-06 5.967448757e-16 7.162462745e-07)
(1.39692574e-06 5.997806418e-16 7.162460046e-07)
(1.396094415e-06 6.032500888e-16 7.162456758e-07)
(1.395145966e-06 6.071532166e-16 7.162453006e-07)
(1.394116847e-06 6.114900253e-16 7.162448935e-07)
(1.393046595e-06 6.15826834e-16 7.162444702e-07)
(1.391976342e-06 6.201636427e-16 7.162440468e-07)
(1.390947223e-06 6.245004514e-16 7.162436398e-07)
(1.389998774e-06 6.284035792e-16 7.162432646e-07)
(1.389167449e-06 6.318730261e-16 7.162429357e-07)
(1.388485204e-06 6.349087922e-16 7.162426659e-07)
(1.387978249e-06 6.368603561e-16 7.162424653e-07)
(1.387666072e-06 6.379445583e-16 7.162423418e-07)
(1.579215821e-06 5.743199153e-16 6.146990176e-07)
(1.579463057e-06 5.738682099e-16 6.146990554e-07)
(1.580195242e-06 5.726755875e-16 6.146991674e-07)
(1.581384263e-06 5.707240236e-16 6.146993492e-07)
(1.582984411e-06 5.676882575e-16 6.146995938e-07)
(1.584934214e-06 5.642188106e-16 6.146998919e-07)
(1.587158723e-06 5.603156827e-16 6.14700232e-07)
(1.589572435e-06 5.559788741e-16 6.14700601e-07)
(1.592082622e-06 5.516420654e-16 6.147009848e-07)
(1.59459281e-06 5.473052567e-16 6.147013686e-07)
(1.597006522e-06 5.42968448e-16 6.147017376e-07)
(1.599231031e-06 5.390653202e-16 6.147020777e-07)
(1.601180834e-06 5.355958732e-16 6.147023758e-07)
(1.602780982e-06 5.325601071e-16 6.147026205e-07)
(1.603970003e-06 5.306085432e-16 6.147028023e-07)
(1.604702188e-06 5.291990804e-16 6.147029142e-07)
(1.604949424e-06 5.28757926e-16 6.14702952e-07)
(1.604702188e-06 5.291990804e-16 6.147029142e-07)
(1.603970003e-06 5.306085432e-16 6.147028023e-07)
(1.602780982e-06 5.325601071e-16 6.147026205e-07)
(1.601180834e-06 5.355958732e-16 6.147023759e-07)
(1.599231031e-06 5.390653202e-16 6.147020778e-07)
(1.597006522e-06 5.42968448e-16 6.147017377e-07)
(1.59459281e-06 5.473052567e-16 6.147013686e-07)
(1.592082622e-06 5.516420654e-16 6.147009849e-07)
(1.589572435e-06 5.559788741e-16 6.147006011e-07)
(1.587158723e-06 5.603156827e-16 6.147002321e-07)
(1.584934214e-06 5.642188106e-16 6.146998919e-07)
(1.582984411e-06 5.676882575e-16 6.146995938e-07)
(1.581384263e-06 5.707240236e-16 6.146993492e-07)
(1.580195242e-06 5.726755875e-16 6.146991674e-07)
(1.579463057e-06 5.738682099e-16 6.146990555e-07)
(1.769641484e-06 5.077972638e-16 4.245998283e-07)
(1.770054356e-06 5.074066167e-16 4.24599862e-07)
(1.771277072e-06 5.058887337e-16 4.245999618e-07)
(1.773262683e-06 5.043708506e-16 4.246001239e-07)
(1.775934856e-06 5.013350846e-16 4.246003421e-07)
(1.779190937e-06 4.978656376e-16 4.246006079e-07)
(1.782905765e-06 4.939625098e-16 4.246009111e-07)
(1.786936553e-06 4.891920202e-16 4.246012402e-07)
(1.791128451e-06 4.848552115e-16 4.246015824e-07)
(1.795320349e-06 4.805184028e-16 4.246019246e-07)
(1.799351137e-06 4.76615275e-16 4.246022537e-07)
(1.803065965e-06 4.727121472e-16 4.246025569e-07)
(1.806322046e-06 4.692427003e-16 4.246028228e-07)
(1.808994219e-06 4.662069342e-16 4.246030409e-07)
(1.81097983e-06 4.638216894e-16 4.24603203e-07)
(1.812202546e-06 4.627374872e-16 4.246033028e-07)
(1.812615418e-06 4.622353587e-16 4.246033365e-07)
(1.812202546e-06 4.627374872e-16 4.246033028e-07)
(1.81097983e-06 4.638216894e-16 4.24603203e-07)
(1.808994219e-06 4.662069342e-16 4.246030409e-07)
(1.806322046e-06 4.692427003e-16 4.246028228e-07)
(1.803065965e-06 4.727121472e-16 4.24602557e-07)
(1.799351137e-06 4.76615275e-16 4.246022537e-07)
(1.795320349e-06 4.805184028e-16 4.246019247e-07)
(1.791128451e-06 4.848552115e-16 4.246015825e-07)
(1.786936553e-06 4.891920202e-16 4.246012402e-07)
(1.782905765e-06 4.939625098e-16 4.246009112e-07)
(1.779190937e-06 4.978656376e-16 4.246006079e-07)
(1.775934856e-06 5.013350846e-16 4.246003421e-07)
(1.773262683e-06 5.043708506e-16 4.24600124e-07)
(1.771277072e-06 5.058887337e-16 4.245999618e-07)
(1.770054356e-06 5.074066167e-16 4.24599862e-07)
(1.958860008e-06 4.392869403e-16 1.323459495e-07)
(1.959461913e-06 4.387766192e-16 1.323459787e-07)
(1.961244446e-06 4.375839968e-16 1.323460652e-07)
(1.964139164e-06 4.354155925e-16 1.323462057e-07)
(1.968034785e-06 4.323798264e-16 1.323463948e-07)
(1.972781655e-06 4.289103794e-16 1.323466252e-07)
(1.978197308e-06 4.250072516e-16 1.32346888e-07)
(1.984073583e-06 4.206704429e-16 1.323471732e-07)
(1.990184731e-06 4.163336342e-16 1.323474699e-07)
(1.996295879e-06 4.119968255e-16 1.323477665e-07)
(2.002172154e-06 4.076600169e-16 1.323480517e-07)
(2.007587807e-06 4.03756889e-16 1.323483145e-07)
(2.012334677e-06 4.002874421e-16 1.32348545e-07)
(2.016230298e-06 3.97251676e-16 1.32348734e-07)
(2.019125016e-06 3.955169525e-16 1.323488745e-07)
(2.020907549e-06 3.941074897e-16 1.323489611e-07)
(2.021509454e-06 3.937250389e-16 1.323489903e-07)
(2.020907549e-06 3.941074897e-16 1.323489611e-07)
(2.019125016e-06 3.955169525e-16 1.323488746e-07)
(2.016230298e-06 3.97251676e-16 1.323487341e-07)
(2.012334678e-06 4.002874421e-16 1.32348545e-07)
(2.007587807e-06 4.03756889e-16 1.323483146e-07)
(2.002172154e-06 4.076600169e-16 1.323480517e-07)
(1.996295879e-06 4.119968255e-16 1.323477665e-07)
(1.990184731e-06 4.163336342e-16 1.323474699e-07)
(1.984073583e-06 4.206704429e-16 1.323471733e-07)
(1.978197308e-06 4.250072516e-16 1.323468881e-07)
(1.972781655e-06 4.289103794e-16 1.323466252e-07)
(1.968034785e-06 4.323798264e-16 1.323463948e-07)
(1.964139164e-06 4.354155925e-16 1.323462057e-07)
(1.961244446e-06 4.375839968e-16 1.323460652e-07)
(1.959461913e-06 4.387766192e-16 1.323459787e-07)
(2.146966664e-06 3.693033207e-16 -2.750176417e-07)
(2.147779177e-06 3.688455791e-16 -2.750176175e-07)
(2.150185426e-06 3.675445365e-16 -2.750175459e-07)
(2.154093017e-06 3.655929726e-16 -2.750174295e-07)
(2.159351731e-06 3.625572065e-16 -2.750172728e-07)
(2.16575955e-06 3.590877595e-16 -2.75017082e-07)
(2.173070162e-06 3.551846317e-16 -2.750168642e-07)
(2.181002569e-06 3.504141421e-16 -2.750166279e-07)
(2.189252032e-06 3.460773335e-16 -2.750163822e-07)
(2.197501495e-06 3.417405248e-16 -2.750161365e-07)
(2.205433902e-06 3.378373969e-16 -2.750159002e-07)
(2.212744514e-06 3.339342691e-16 -2.750156825e-07)
(2.219152333e-06 3.304648222e-16 -2.750154916e-07)
(2.224411047e-06 3.274290561e-16 -2.750153349e-07)
(2.228318638e-06 3.254774922e-16 -2.750152185e-07)
(2.230724886e-06 3.241764496e-16 -2.750151469e-07)
(2.2315374e-06 3.237414227e-16 -2.750151227e-07)
(2.230724886e-06 3.241764496e-16 -2.750151469e-07)
(2.228318638e-06 3.254774922e-16 -2.750152185e-07)
(2.224411047e-06 3.274290561e-16 -2.750153349e-07)
(2.219152333e-06 3.304648222e-16 -2.750154915e-07)
(2.212744514e-06 3.339342691e-16 -2.750156824e-07)
(2.205433902e-06 3.378373969e-16 -2.750159002e-07)
(2.197501495e-06 3.417405248e-16 -2.750161364e-07)
(2.189252032e-06 3.460773335e-16 -2.750163822e-07)
(2.181002569e-06 3.504141421e-16 -2.750166279e-07)
(2.173070162e-06 3.551846317e-16 -2.750168642e-07)
(2.16575955e-06 3.590877595e-16 -2.750170819e-07)
(2.159351731e-06 3.625572065e-16 -2.750172728e-07)
(2.154093017e-06 3.655929726e-16 -2.750174295e-07)
(2.150185426e-06 3.675445365e-16 -2.750175458e-07)
(2.147779177e-06 3.688455791e-16 -2.750176175e-07)
(2.334150603e-06 2.984555398e-16 -8.088782201e-07)
(2.335191676e-06 2.980471772e-16 -8.088782016e-07)
(2.338274803e-06 2.966377144e-16 -8.088781468e-07)
(2.343281598e-06 2.949029909e-16 -8.088780577e-07)
(2.350019587e-06 2.918672248e-16 -8.088779378e-07)
(2.358229925e-06 2.883977779e-16 -8.088777917e-07)
(2.36759701e-06 2.844946501e-16 -8.088776251e-07)
(2.377760802e-06 2.801578414e-16 -8.088774442e-07)
(2.388330838e-06 2.758210327e-16 -8.088772562e-07)
(2.398900873e-06 2.71484224e-16 -8.088770681e-07)
(2.409064665e-06 2.671474153e-16 -8.088768872e-07)
(2.418431751e-06 2.632442875e-16 -8.088767206e-07)
(2.426642088e-06 2.597748405e-16 -8.088765745e-07)
(2.433380078e-06 2.567390744e-16 -8.088764546e-07)
(2.438386873e-06 2.545706701e-16 -8.088763655e-07)
(2.441469999e-06 2.533780477e-16 -8.088763106e-07)
(2.442511073e-06 2.528936456e-16 -8.088762921e-07)
(2.441469999e-06 2.533780477e-16 -8.088763106e-07)
(2.438386873e-06 2.545706701e-16 -8.088763655e-07)
(2.433380078e-06 2.567390744e-16 -8.088764546e-07)
(2.426642088e-06 2.597748405e-16 -8.088765745e-07)
(2.418431751e-06 2.632442875e-16 -8.088767205e-07)
(2.409064665e-06 2.671474153e-16 -8.088768872e-07)
(2.398900873e-06 2.71484224e-16 -8.08877068e-07)
(2.388330838e-06 2.758210327e-16 -8.088772561e-07)
(2.377760802e-06 2.801578414e-16 -8.088774442e-07)
(2.36759701e-06 2.844946501e-16 -8.08877625e-07)
(2.358229925e-06 2.883977779e-16 -8.088777917e-07)
(2.350019587e-06 2.918672248e-16 -8.088779378e-07)
(2.343281598e-06 2.949029909e-16 -8.088780577e-07)
(2.338274803e-06 2.966377144e-16 -8.088781468e-07)
(2.335191676e-06 2.980471772e-16 -8.088782016e-07)
(2.520721232e-06 2.273900326e-16 -1.477869469e-06)
(2.522002879e-06 2.270319349e-16 -1.477869457e-06)
(2.525798462e-06 2.257308923e-16 -1.477869421e-06)
(2.531962241e-06 2.237793284e-16 -1.477869362e-06)
(2.540257263e-06 2.207435623e-16 -1.477869284e-06)
(2.550364868e-06 2.172741154e-16 -1.477869188e-06)
(2.561896524e-06 2.133709875e-16 -1.477869079e-06)
(2.574408993e-06 2.090341789e-16 -1.477868961e-06)
(2.58742158e-06 2.046973702e-16 -1.477868838e-06)
(2.600434168e-06 2.003605615e-16 -1.477868714e-06)
(2.612946637e-06 1.960237528e-16 -1.477868596e-06)
(2.624478293e-06 1.92120625e-16 -1.477868487e-06)
(2.634585897e-06 1.88651178e-16 -1.477868391e-06)
(2.64288092e-06 1.856154119e-16 -1.477868313e-06)
(2.649044699e-06 1.83663848e-16 -1.477868255e-06)
(2.652840282e-06 1.823628054e-16 -1.477868219e-06)
(2.654121929e-06 1.818281441e-16 -1.477868206e-06)
(2.652840282e-06 1.823628054e-16 -1.477868219e-06)
(2.649044699e-06 1.83663848e-16 -1.477868255e-06)
(2.64288092e-06 1.856154119e-16 -1.477868313e-06)
(2.634585897e-06 1.88651178e-16 -1.477868391e-06)
(2.624478293e-06 1.92120625e-16 -1.477868487e-06)
(2.612946637e-06 1.960237528e-16 -1.477868596e-06)
(2.600434168e-06 2.003605615e-16 -1.477868714e-06)
(2.58742158e-06 2.046973702e-16 -1.477868838e-06)
(2.574408993e-06 2.090341789e-16 -1.477868961e-06)
(2.561896524e-06 2.133709875e-16 -1.477869079e-06)
(2.550364868e-06 2.172741154e-16 -1.477869188e-06)
(2.540257263e-06 2.207435623e-16 -1.477869284e-06)
(2.531962241e-06 2.237793284e-16 -1.477869362e-06)
(2.525798462e-06 2.257308923e-16 -1.477869421e-06)
(2.522002879e-06 2.270319349e-16 -1.477869457e-06)
(2.707129604e-06 1.567461003e-16 -2.286421705e-06)
(2.70865518e-06 1.562335331e-16 -2.2864217e-06)
(2.713173158e-06 1.550409107e-16 -2.286421685e-06)
(2.720510058e-06 1.530893468e-16 -2.286421661e-06)
(2.730383829e-06 1.500535807e-16 -2.286421628e-06)
(2.742415162e-06 1.465841337e-16 -2.286421588e-06)
(2.75614158e-06 1.426810059e-16 -2.286421542e-06)
(2.771035482e-06 1.387778781e-16 -2.286421493e-06)
(2.78652469e-06 1.344410694e-16 -2.286421442e-06)
(2.802013897e-06 1.301042607e-16 -2.28642139e-06)
(2.816907799e-06 1.253337711e-16 -2.286421341e-06)
(2.830634217e-06 1.214306433e-16 -2.286421295e-06)
(2.84266555e-06 1.179611964e-16 -2.286421255e-06)
(2.852539322e-06 1.149254303e-16 -2.286421222e-06)
(2.859876221e-06 1.129738664e-16 -2.286421198e-06)
(2.864394199e-06 1.115644035e-16 -2.286421183e-06)
(2.865919775e-06 1.111842211e-16 -2.286421178e-06)
(2.864394199e-06 1.115644035e-16 -2.286421183e-06)
(2.859876221e-06 1.129738664e-16 -2.286421198e-06)
(2.852539322e-06 1.149254303e-16 -2.286421222e-06)
(2.84266555e-06 1.179611964e-16 -2.286421255e-06)
(2.830634217e-06 1.214306433e-16 -2.286421295e-06)
(2.816907799e-06 1.253337711e-16 -2.286421341e-06)
(2.802013897e-06 1.301042607e-16 -2.28642139e-06)
(2.78652469e-06 1.344410694e-16 -2.286421441e-06)
(2.771035482e-06 1.387778781e-16 -2.286421493e-06)
(2.75614158e-06 1.426810059e-16 -2.286421542e-06)
(2.742415162e-06 1.465841337e-16 -2.286421588e-06)
(2.730383829e-06 1.500535807e-16 -2.286421628e-06)
(2.720510058e-06 1.530893468e-16 -2.286421661e-06)
(2.713173158e-06 1.550409107e-16 -2.286421685e-06)
(2.70865518e-06 1.562335331e-16 -2.2864217e-06)
(2.89399547e-06 8.71171024e-17 -3.23304476e-06)
(2.895756433e-06 8.662775358e-17 -3.233044762e-06)
(2.900971504e-06 8.543513119e-17 -3.233044769e-06)
(2.909440438e-06 8.326672685e-17 -3.233044781e-06)
(2.920837666e-06 8.023096076e-17 -3.233044797e-06)
(2.934725352e-06 7.676151381e-17 -3.233044816e-06)
(2.950569663e-06 7.285838599e-17 -3.233044837e-06)
(2.967761595e-06 6.85215773e-17 -3.233044861e-06)
(2.985640682e-06 6.418476861e-17 -3.233044885e-06)
(3.003519769e-06 5.984795992e-17 -3.23304491e-06)
(3.020711701e-06 5.551115123e-17 -3.233044933e-06)
(3.036556012e-06 5.160802341e-17 -3.233044955e-06)
(3.050443699e-06 4.813857646e-17 -3.233044974e-06)
(3.061840926e-06 4.510281038e-17 -3.23304499e-06)
(3.07030986e-06 4.33680869e-17 -3.233045001e-06)
(3.075524931e-06 4.195862408e-17 -3.233045008e-06)
(3.077285894e-06 4.155531834e-17 -3.233045011e-06)
(3.075524931e-06 4.195862408e-17 -3.233045008e-06)
(3.07030986e-06 4.33680869e-17 -3.233045001e-06)
(3.061840926e-06 4.510281038e-17 -3.23304499e-06)
(3.050443699e-06 4.813857646e-17 -3.233044974e-06)
(3.036556012e-06 5.160802341e-17 -3.233044955e-06)
(3.020711701e-06 5.551115123e-17 -3.233044933e-06)
(3.003519769e-06 5.984795992e-17 -3.23304491e-06)
(2.985640682e-06 6.418476861e-17 -3.233044885e-06)
(2.967761595e-06 6.85215773e-17 -3.233044861e-06)
(2.950569663e-06 7.285838599e-17 -3.233044837e-06)
(2.934725352e-06 7.676151381e-17 -3.233044816e-06)
(2.920837666e-06 8.023096076e-17 -3.233044797e-06)
(2.909440438e-06 8.326672685e-17 -3.233044781e-06)
(2.900971504e-06 8.543513119e-17 -3.233044769e-06)
(2.895756433e-06 8.662775358e-17 -3.233044762e-06)
(3.082126862e-06 1.902862508e-17 -4.308353892e-06)
(3.084099156e-06 1.853985715e-17 -4.308353902e-06)
(3.089940079e-06 1.734723476e-17 -4.308353931e-06)
(3.099425358e-06 1.517883041e-17 -4.308353978e-06)
(3.11219035e-06 1.214306433e-17 -4.308354042e-06)
(3.127744677e-06 8.67361738e-18 -4.308354119e-06)
(3.145490441e-06 4.770489559e-18 -4.308354208e-06)
(3.164745551e-06 0 -4.308354304e-06)
(3.184770282e-06 -4.33680869e-18 -4.308354404e-06)
(3.204795012e-06 -8.67361738e-18 -4.308354503e-06)
(3.224050122e-06 -1.25767452e-17 -4.308354599e-06)
(3.241795886e-06 -1.647987302e-17 -4.308354688e-06)
(3.257350213e-06 -1.994931997e-17 -4.308354766e-06)
(3.270115206e-06 -2.298508606e-17 -4.308354829e-06)
(3.279600484e-06 -2.471980953e-17 -4.308354876e-06)
(3.285441408e-06 -2.612927236e-17 -4.308354906e-06)
(3.287413701e-06 -2.65331353e-17 -4.308354915e-06)
(3.285441408e-06 -2.612927236e-17 -4.308354906e-06)
(3.279600484e-06 -2.471980953e-17 -4.308354876e-06)
(3.270115206e-06 -2.298508606e-17 -4.308354829e-06)
(3.257350213e-06 -1.994931997e-17 -4.308354765e-06)
(3.241795886e-06 -1.647987302e-17 -4.308354688e-06)
(3.224050122e-06 -1.25767452e-17 -4.308354599e-06)
(3.204795012e-06 -8.67361738e-18 -4.308354503e-06)
(3.184770282e-06 -4.33680869e-18 -4.308354404e-06)
(3.164745551e-06 0 -4.308354304e-06)
(3.145490441e-06 4.770489559e-18 -4.308354208e-06)
(3.127744677e-06 8.67361738e-18 -4.308354119e-06)
(3.11219035e-06 1.214306433e-17 -4.308354042e-06)
(3.099425358e-06 1.517883041e-17 -4.308353978e-06)
(3.089940079e-06 1.734723476e-17 -4.308353931e-06)
(3.084099156e-06 1.853985715e-17 -4.308353902e-06)
(3.272540259e-06 -4.706564069e-17 -5.492877114e-06)
(3.274680317e-06 -4.748805515e-17 -5.492877131e-06)
(3.281018071e-06 -4.90059382e-17 -5.492877179e-06)
(3.291310171e-06 -5.074066167e-17 -5.492877259e-06)
(3.305160958e-06 -5.377642776e-17 -5.492877365e-06)
(3.322038341e-06 -5.724587471e-17 -5.492877495e-06)
(3.341293566e-06 -6.114900253e-17 -5.492877643e-06)
(3.362186523e-06 -6.591949209e-17 -5.492877803e-06)
(3.383914564e-06 -7.025630078e-17 -5.492877971e-06)
(3.405642604e-06 -7.459310947e-17 -5.492878138e-06)
(3.426535561e-06 -7.849623729e-17 -5.492878298e-06)
(3.445790786e-06 -8.239936511e-17 -5.492878446e-06)
(3.462668169e-06 -8.586881206e-17 -5.492878576e-06)
(3.476518956e-06 -8.890457814e-17 -5.492878682e-06)
(3.486811056e-06 -9.107298249e-17 -5.492878762e-06)
(3.49314881e-06 -9.215718466e-17 -5.49287881e-06)
(3.495288868e-06 -9.262736576e-17 -5.492878827e-06)
(3.493148811e-06 -9.215718466e-17 -5.49287881e-06)
(3.486811056e-06 -9.107298249e-17 -5.492878762e-06)
(3.476518956e-06 -8.890457814e-17 -5.492878682e-06)
(3.462668169e-06 -8.586881206e-17 -5.492878576e-06)
(3.445790786e-06 -8.239936511e-17 -5.492878446e-06)
(3.426535561e-06 -7.849623729e-17 -5.492878298e-06)
(3.405642604e-06 -7.459310947e-17 -5.492878138e-06)
(3.383914564e-06 -7.025630078e-17 -5.49287797e-06)
(3.362186523e-06 -6.591949209e-17 -5.492877803e-06)
(3.341293566e-06 -6.114900253e-17 -5.492877643e-06)
(3.322038341e-06 -5.724587471e-17 -5.492877495e-06)
(3.305160958e-06 -5.377642776e-17 -5.492877365e-06)
(3.291310171e-06 -5.074066167e-17 -5.492877259e-06)
(3.281018071e-06 -4.90059382e-17 -5.492877179e-06)
(3.274680317e-06 -4.748805515e-17 -5.492877131e-06)
(3.466471966e-06 -1.107664735e-16 -6.754689488e-06)
(3.468712496e-06 -1.112391429e-16 -6.754689509e-06)
(3.475347797e-06 -1.125401855e-16 -6.754689572e-06)