/*--------------------------------*- C++ -*----------------------------------*\
| =========                 |                                                 |
| \\      /  F ield         | OpenFOAM: The Open Source CFD Toolbox           |
|  \\    /   O peration     | Version:  2312                                  |
|   \\  /    A nd           | Website:  www.openfoam.com                      |
|    \\/     M anipulation  |                                                 |
\*---------------------------------------------------------------------------*/
FoamFile
{
    version     2.0;
    format      ascii;
    arch        "LSB;label=32;scalar=64";
    class       surfaceVectorField;
    location    "0.04/beam";
    object      Q;
}
// * * * * * * * * * * * * * * * * * * * * * * * * * * * * * * * * * * * * * //

dimensions      [1 1 -2 0 0 0 0];

oriented        oriented;

internalField   nonuniform List<vector> 
59
(
(0.0006778790523 3.716828949e-18 6.461859178e-08)
(0.0006778842237 3.371223181e-18 6.742754e-08)
(0.0006778928427 2.74999536e-18 7.180185789e-08)
(0.0006779049089 1.844257274e-18 7.727728442e-08)
(0.0006779204221 6.917602171e-19 8.319800297e-08)
(0.000677939382 -6.24543024e-19 8.871286727e-08)
(0.0006779617881 -1.989863913e-18 9.277349282e-08)
(0.0006779876399 -3.276911764e-18 9.413636501e-08)
(0.0006780169368 -4.366139405e-18 9.137151124e-08)
(0.0006780496781 -5.163465883e-18 8.288062034e-08)
(0.000678085863 -5.612901266e-18 6.692773855e-08)
(0.0006781254907 -5.704495667e-18 4.168580139e-08)
(0.0006781685603 -5.476399719e-18 5.302238247e-09)
(0.0006782150708 -5.012037498e-18 -4.401332468e-08)
(0.000678265021 -4.433352179e-18 -1.078766792e-07)
(0.0006783184098 -3.89112113e-18 -1.875900965e-07)
(0.0006783752361 -3.55341683e-18 -2.839759867e-07)
(0.0006784354984 -3.592999742e-18 -3.971836748e-07)
(0.0006784991956 -4.174460544e-18 -5.264715467e-07)
(0.0006785663263 -5.441419262e-18 -6.699689313e-07)
(0.0006786368891 -7.5040946e-18 -8.244245693e-07)
(0.0006787108829 -1.042722843e-17 -9.849513385e-07)
(0.0006787882972 -1.421796548e-17 -1.144762018e-06)
(0.0006788691576 -1.881688732e-17 -1.295038171e-06)
(0.0006789534259 -2.408153859e-17 -1.424559365e-06)
(0.0006790411382 -2.978362119e-17 -1.519841528e-06)
(0.0006791322526 -3.558950779e-17 -1.564891318e-06)
(0.0006792268067 -4.106120584e-17 -1.541473076e-06)
(0.0006793247531 -4.563869155e-17 -1.429286133e-06)
(0.0006794261296 -4.864489076e-17 -1.206340962e-06)
(0.0006795308817 -4.927700511e-17 -8.498037601e-07)
(0.0006796390453 -4.66163308e-17 -3.364430654e-07)
(0.0006797505578 -3.963952526e-17 3.556101838e-07)
(0.000679865453 -2.723450514e-17 1.246439837e-06)
(0.0006799836612 -8.245997824e-18 2.351471446e-06)
(0.0006801052177 1.850150297e-17 3.681237477e-06)
(0.0006802300519 5.4107438e-17 5.237318498e-06)
(0.0006803582096 9.956506785e-17 7.012533701e-06)
(0.0006804896306 1.555987364e-16 8.985834839e-06)
(0.000680624383 2.22628364e-16 1.112321392e-05)
(0.0006807624273 3.005297355e-16 1.33719826e-05)
(0.0006809038576 3.885978644e-16 1.566269161e-05)
(0.0006810486449 4.852313342e-16 1.790357872e-05)
(0.0006811968771 5.879012389e-16 1.998370135e-05)
(0.0006813484722 6.927792364e-16 2.176868602e-05)
(0.0006815034062 7.947208657e-16 2.310503747e-05)
(0.0006816613862 8.868851058e-16 2.381858495e-05)
(0.000681822061 9.607409143e-16 2.371950371e-05)
(0.0006819846549 1.005762602e-15 2.260491998e-05)
(0.0006821481685 1.009465614e-15 2.026354213e-05)
(0.0006823109984 9.573058471e-16 1.648364861e-05)
(0.0006824711587 8.327440081e-16 1.10553976e-05)
(0.0006826259454 6.175242479e-16 3.78480996e-06)
(0.0006827722302 2.917557842e-16 -5.509104714e-06)
(0.0006829062537 -1.652099686e-16 -1.697472744e-05)
(0.0006830240397 -7.747042947e-16 -3.073960905e-05)
(0.0006831213937 -1.557011938e-15 -4.68867334e-05)
(0.0006831944367 -2.531339777e-15 -6.547944438e-05)
(0.0006832398205 -3.712976552e-15 -8.653611357e-05)
)
;

boundaryField
{
    left
    {
        type            calculated;
        value           uniform (-0.0006778773353 -6.811793774e-12 -6.365846418e-08);
    }
    right
    {
        type            calculated;
        value           uniform (0.0006832552769 -6.816134118e-12 -0.0001100722959);
    }
    beam
    {
        type            empty;
        value           nonuniform List<vector> 0();
    }
}


// ************************************************************************* //
