/*--------------------------------*- C++ -*----------------------------------*\
| =========                 |                                                 |
| \\      /  F ield         | OpenFOAM: The Open Source CFD Toolbox           |
|  \\    /   O peration     | Version:  2312                                  |
|   \\  /    A nd           | Website:  www.openfoam.com                      |
|    \\/     M anipulation  |                                                 |
\*---------------------------------------------------------------------------*/
FoamFile
{
    version     2.0;
    format      ascii;
    arch        "LSB;label=32;scalar=64";
    class       volVectorField;
    location    "0.04/beam";
    object      Theta;
}
// * * * * * * * * * * * * * * * * * * * * * * * * * * * * * * * * * * * * * //

dimensions      [0 0 0 0 0 0 0];

internalField   nonuniform List<vector> 
60
(
(3.58666539e-17 -4.689086909e-05 -1.247923077e-15)
(3.587212284e-17 -4.440051823e-05 -1.255820733e-15)
(3.587458557e-17 -4.307488088e-05 -1.271016132e-15)
(3.587665684e-17 -4.071021192e-05 -1.291491696e-15)
(3.587733297e-17 -3.860033477e-05 -1.314403368e-15)
(3.587680543e-17 -3.594017355e-05 -1.336055392e-15)
(3.587530158e-17 -3.317821274e-05 -1.351687057e-15)
(3.587287925e-17 -3.001481985e-05 -1.356785404e-15)
(3.586986014e-17 -2.660557941e-05 -1.346178384e-15)
(3.58664241e-17 -2.28477372e-05 -1.317562337e-15)
(3.586286292e-17 -1.881470145e-05 -1.268004468e-15)
(3.585939515e-17 -1.450441461e-05 -1.196748911e-15)
(3.585622512e-17 -9.999068031e-06 -1.105186172e-15)
(3.585346913e-17 -5.379157515e-06 -9.967615671e-16)
(3.585114132e-17 -7.84699589e-07 -8.77089335e-16)
(3.584912338e-17 3.611905415e-06 -7.537332008e-16)
(3.584715094e-17 7.581004329e-06 -6.358719835e-16)
(3.584480613e-17 1.084354776e-05 -5.340327659e-16)
(3.584152437e-17 1.306181873e-05 -4.594205969e-16)
(3.583661139e-17 1.38438835e-05 -4.233330726e-16)
(3.582925417e-17 1.274443788e-05 -4.369794788e-16)
(3.581858024e-17 9.273664507e-06 -5.093467522e-16)
(3.580367052e-17 2.908921003e-06 -6.489167068e-16)
(3.578367938e-17 -6.888503122e-06 -8.598991128e-16)
(3.575795153e-17 -2.064738858e-05 -1.145621436e-15)
(3.572629544e-17 -3.885623119e-05 -1.500995812e-15)
(3.568931621e-17 -6.192400643e-05 -1.923235292e-15)
(3.56489567e-17 -9.013308689e-05 -2.392024278e-15)
(3.56091221e-17 -0.0001235842618 -2.901705679e-15)
(3.557636529e-17 -0.0001621342754 -3.405540785e-15)
(3.555027109e-17 -0.0002053267773 -3.851857873e-15)
(3.556354912e-17 -0.0002523184323 -4.27055629e-15)
(3.562303703e-17 -0.0003018021653 -4.597838439e-15)
(3.574575385e-17 -0.0003519309365 -4.763644008e-15)
(3.594558019e-17 -0.0004002454642 -4.729225832e-15)
(3.622716919e-17 -0.0004436110139 -4.433951154e-15)
(3.657689906e-17 -0.0004781682886 -3.831007229e-15)
(3.695187383e-17 -0.000499305121 -2.871002841e-15)
(3.726837379e-17 -0.0005016554618 -1.517893317e-15)
(3.739292719e-17 -0.0004791331741 2.535466052e-16)
(3.714169714e-17 -0.000425008365 2.448175823e-15)
(3.629568394e-17 -0.0003320328605 5.048196581e-15)
(3.464269765e-17 -0.0001926235691 8.005541958e-15)
(3.205831333e-17 8.937642053e-07 1.123867469e-14)
(2.863759536e-17 0.0002559695545 1.462795577e-14)
(2.48898697e-17 0.0005794523236 1.801361551e-14)
(2.199186295e-17 0.0009771288935 2.119594468e-14)
(2.209783182e-17 0.001453216353 2.393857695e-14)
(2.864943257e-17 0.002009760003 2.597575722e-14)
(4.66500687e-17 0.002646032462 2.70248951e-14)
(8.274398218e-17 0.003357803722 2.680486921e-14)
(1.450234494e-16 0.004136736168 2.506126485e-14)
(2.422761882e-16 0.004969526896 2.159904007e-14)
(3.826140713e-16 0.005837478924 1.63230976e-14)
(5.711578859e-16 0.006715420297 9.285802064e-15)
(8.069542597e-16 0.007571831017 7.465260717e-16)
(1.079123657e-15 0.008367124072 -8.772064596e-15)
(1.363137746e-15 0.009055221004 -1.841445674e-14)
(1.618274626e-15 0.00957985937 -2.692676742e-14)
(1.788646108e-15 0.009879936034 -3.259375645e-14)
)
;

boundaryField
{
    left
    {
        type            momentBeamRotationNR;
        value           uniform (3.58666539e-17 -4.689086909e-05 -1.247923077e-15);
        momentSeries    
{
        file            "$FOAM_CASE/constant/beam/timeVsMoment";
        outOfBounds     clamp;
}
        moment          uniform (0 0 0);
    }
    right
    {
        type            momentBeamRotationNR;
        value           uniform (1.788646108e-15 0.009879936034 -3.259375645e-14);
        momentSeries    
{
        file            "$FOAM_CASE/constant/beam/timeVsMoment";
        outOfBounds     clamp;
}
        moment          uniform (0 0 0);
    }
    beam
    {
        type            empty;
    }
}


// ************************************************************************* //
