/*--------------------------------*- C++ -*----------------------------------*\
| =========                 |                                                 |
| \\      /  F ield         | OpenFOAM: The Open Source CFD Toolbox           |
|  \\    /   O peration     | Version:  2312                                  |
|   \\  /    A nd           | Website:  www.openfoam.com                      |
|    \\/     M anipulation  |                                                 |
\*---------------------------------------------------------------------------*/
FoamFile
{
    version     2.0;
    format      ascii;
    arch        "LSB;label=32;scalar=64";
    class       volVectorField;
    location    "0.04/beam";
    object      W;
}
// * * * * * * * * * * * * * * * * * * * * * * * * * * * * * * * * * * * * * //

dimensions      [0 1 0 0 0 0 0];

internalField   nonuniform List<vector> 
60
(
(9.949482758e-08 9.74907499e-16 9.023447036e-08)
(2.984871469e-07 9.24398546e-16 2.662861357e-07)
(4.974839407e-07 8.729258868e-16 4.289412716e-07)
(6.964856632e-07 8.198995018e-16 5.687937133e-07)
(8.954935341e-07 7.648173846e-16 6.757747681e-07)
(1.094508303e-06 7.072984789e-16 7.389820194e-07)
(1.293530946e-06 6.471211802e-16 7.465920709e-07)
(1.492562243e-06 5.842471337e-16 6.858968694e-07)
(1.691603002e-06 5.188307077e-16 5.435051003e-07)
(1.8906539e-06 4.512019149e-16 3.056980646e-07)
(2.089715562e-06 3.818100643e-16 -4.100312487e-08)
(2.288788502e-06 3.112346791e-16 -5.090296395e-07)
(2.487873173e-06 2.401145064e-16 -1.108724873e-06)
(2.686969987e-06 1.691036704e-16 -1.847012802e-06)
(2.886079392e-06 9.8826651e-17 -2.725830081e-06)
(3.085201972e-06 2.984576974e-17 -3.74025969e-06)
(3.284338591e-06 -3.735027997e-17 -4.876449117e-06)
(3.483490536e-06 -1.023427265e-16 -6.109306824e-06)
(3.682659663e-06 -1.647518953e-16 -7.400074368e-06)
(3.88184845e-06 -2.241792494e-16 -8.693844875e-06)
(4.081059906e-06 -2.801345971e-16 -9.917176566e-06)
(4.280297186e-06 -3.319309352e-16 -1.097592988e-05)
(4.479551542e-06 -3.785639195e-16 -1.175348978e-05)
(4.678845952e-06 -4.186110767e-16 -1.210993689e-05)
(4.878165536e-06 -4.500801667e-16 -1.188142987e-05)
(5.077499661e-06 -4.703124723e-16 -1.088190825e-05)
(5.276827089e-06 -4.75865919e-16 -8.9050896e-06)
(5.476111846e-06 -4.624625613e-16 -5.729824019e-06)
(5.675299072e-06 -4.249575957e-16 -1.125932829e-06)
(5.87431184e-06 -3.573944828e-16 5.135184114e-06)
(6.073049871e-06 -2.519269908e-16 1.326960692e-05)
(6.271392274e-06 -1.014124845e-16 2.346380719e-05)
(6.469205244e-06 1.002962372e-16 3.585758433e-05)
(6.666357636e-06 3.601907966e-16 5.051993385e-05)
(6.862743832e-06 6.843757204e-16 6.742554056e-05)
(7.058315789e-06 1.07724033e-15 8.642425657e-05)
(7.253119301e-06 1.540580833e-15 0.0001072120353)
(7.447331329e-06 2.072427353e-15 0.0001292965081)
(7.641285445e-06 2.665830184e-15 0.0001519649674)
(7.835471823e-06 3.307379736e-15 0.0001742509462)
(8.030488902e-06 3.975711299e-15 0.0001949040453)
(8.226919483e-06 4.639865252e-15 0.0002123651901)
(8.425102537e-06 5.257681898e-15 0.0002247454677)
(8.624766318e-06 5.774295236e-15 0.0002298205186)
(8.824502616e-06 6.120747138e-15 0.0002250277879)
(9.021067208e-06 6.213134435e-15 0.0002074926385)
(9.208519105e-06 5.951956093e-15 0.0001740548714)
(9.377257487e-06 5.222657111e-15 0.0001213400157)
(9.513022739e-06 3.896465016e-15 4.582613943e-05)
(9.596071436e-06 1.833295119e-15 -5.602750502e-05)
(9.600631639e-06 -1.114944965e-15 -0.0001876640366)
(9.495069623e-06 -5.097928559e-15 -0.0003522346451)
(9.242819206e-06 -1.025999669e-14 -0.0005524268439)
(8.804729064e-06 -1.672899641e-14 -0.0007902028616)
(8.142608959e-06 -2.46045966e-14 -0.001066572161)
(7.22470837e-06 -3.394130673e-14 -0.001381269431)
(6.032310525e-06 -4.473097517e-14 -0.001732476606)
(4.567885287e-06 -5.687959105e-14 -0.00211645605)
(2.863033911e-06 -7.01834663e-14 -0.002527230935)
(9.857592754e-07 -8.430017286e-14 -0.002956195181)
)
;

boundaryField
{
    left
    {
        type            fixedValue;
        value           uniform (0 0 0);
    }
    right
    {
        type            fixedValue;
        value           uniform (1.48315209e-08 -9.251035648e-14 -0.003174001684);
    }
    beam
    {
        type            empty;
    }
}


// ************************************************************************* //
