/*--------------------------------*- C++ -*----------------------------------*\
| =========                 |                                                 |
| \\      /  F ield         | OpenFOAM: The Open Source CFD Toolbox           |
|  \\    /   O peration     | Version:  2312                                  |
|   \\  /    A nd           | Website:  www.openfoam.com                      |
|    \\/     M anipulation  |                                                 |
\*---------------------------------------------------------------------------*/
FoamFile
{
    version     2.0;
    format      ascii;
    arch        "LSB;label=32;scalar=64";
    class       volScalarField;
    location    "0.23";
    object      p;
}
// * * * * * * * * * * * * * * * * * * * * * * * * * * * * * * * * * * * * * //

dimensions      [1 -1 -2 0 0 0 0];

internalField   nonuniform List<scalar> 
299556
(
19.37475599
19.37476802
19.37478015
19.37479245
19.37480498
19.3748178
19.37483099
19.37484462
19.37485875
19.37487346
19.37488882
19.3749049
19.37492178
19.37493953
19.37495824
19.37497798
19.37499883
19.37502088
19.37504419
19.37506886
19.37509497
19.37512258
19.37515178
19.37518263
19.37521522
19.37524959
19.3752858
19.37532391
19.37536394
19.37540593
19.37544988
19.37549578
19.37554362
19.37559334
19.37564488
19.37569814
19.375753
19.37580932
19.3758669
19.37592553
19.37598496
19.37604491
19.37610507
19.37616507
19.37622454
19.37628307
19.37634021
19.37639552
19.37644851
19.37649872
19.37654565
19.37658882
19.37662778
19.37666208
19.37669131
19.37671511
19.37673313
19.37674512
19.37675087
19.37675021
19.37674307
19.37672943
19.37670934
19.37668292
19.37665034
19.37661184
19.37656769
19.37651822
19.37646379
19.37640478
19.37634159
19.37627463
19.37620431
19.37613104
19.3760552
19.37597717
19.3758973
19.3758159
19.37573326
19.37564964
19.37556527
19.37548032
19.37539496
19.37530932
19.37522349
19.37513754
19.37505151
19.37496543
19.37487931
19.37479313
19.37476789
19.37480385
19.3748401
19.37487683
19.37491426
19.37495258
19.374992
19.37503271
19.37507494
19.37511889
19.37516478
19.37521283
19.37526327
19.37531633
19.37537223
19.37543122
19.37549353
19.3755594
19.37562908
19.3757028
19.3757808
19.37586332
19.37595058
19.3760428
19.37614018
19.37624291
19.37635115
19.37646505
19.37658471
19.37671022
19.37684159
19.37697882
19.37712182
19.37727047
19.37742456
19.37758382
19.37774787
19.37791626
19.37808846
19.37826381
19.37844157
19.3786209
19.37880084
19.37898034
19.37915826
19.37933337
19.37950437
19.37966987
19.37982847
19.37997873
19.3801192
19.38024843
19.38036506
19.38046775
19.38055527
19.38062651
19.3806805
19.38071643
19.38073366
19.38073171
19.38071036
19.38066956
19.38060945
19.38053039
19.3804329
19.38031768
19.38018557
19.38003754
19.37987466
19.37969809
19.37950902
19.37930868
19.37909831
19.37887912
19.37865226
19.37841887
19.37817997
19.37793652
19.37768939
19.37743933
19.37718703
19.37693304
19.37667783
19.37642178
19.37616518
19.37590822
19.37565106
19.37539377
19.37513638
19.37487884
19.37477968
19.37483934
19.37489949
19.37496044
19.37502255
19.37508613
19.37515153
19.37521909
19.37528915
19.37536208
19.37543823
19.37551796
19.37560166
19.3756897
19.37578246
19.37588034
19.37598374
19.37609305
19.37620868
19.37633102
19.37646046
19.37659741
19.37674222
19.37689527
19.37705689
19.37722739
19.37740705
19.3775961
19.37779473
19.37800306
19.37822114
19.37844895
19.37868636
19.37893316
19.37918901
19.37945344
19.37972586
19.38000551
19.38029149
19.38058273
19.380878
19.38117588
19.38147481
19.38177304
19.38206866
19.38235963
19.38264379
19.38291884
19.38318245
19.38343221
19.3836657
19.38388056
19.38407446
19.38424521
19.38439075
19.38450923
19.38459904
19.38465881
19.38468751
19.38468433
19.38464888
19.3845811
19.38448122
19.38434984
19.38418782
19.38399633
19.38377677
19.38353077
19.3832601
19.38296668
19.38265252
19.38231965
19.38197013
19.38160597
19.38122912
19.38084142
19.38044461
19.38004026
19.37962983
19.37921457
19.37879561
19.37837386
19.37795012
19.37752499
19.37709897
19.3766724
19.3762455
19.37581841
19.37539118
19.37496378
19.37479128
19.37487428
19.37495795
19.37504276
19.37512915
19.37521761
19.37530859
19.37540258
19.37550005
19.37560151
19.37570745
19.37581838
19.37593483
19.37605731
19.37618638
19.37632257
19.37646643
19.37661853
19.37677941
19.37694964
19.37712976
19.37732032
19.37752184
19.37773482
19.37795974
19.37819703
19.37844708
19.37871022
19.3789867
19.3792767
19.37958029
19.37989744
19.38022799
19.38057163
19.38092789
19.38129614
19.38167553
19.38206504
19.3824634
19.38286913
19.38328051
19.38369558
19.38411215
19.38452778
19.38493982
19.38534544
19.38574158
19.38612509
19.38649268
19.38684099
19.38716666
19.38746637
19.38773687
19.3879751
19.3881782
19.38834356
19.38846893
19.38855241
19.38859254
19.38858822
19.38853886
19.38844441
19.38830519
19.38812203
19.38789614
19.38762916
19.38732305
19.38698007
19.38660273
19.38619369
19.38575577
19.38529181
19.38480469
19.3842972
19.38377207
19.38323188
19.38267904
19.38211576
19.38154405
19.38096567
19.38038217
19.37979485
19.37920479
19.37861286
19.37801971
19.37742583
19.37683153
19.37623701
19.37564234
19.37504751
19.37480263
19.37490846
19.37501514
19.37512327
19.37523343
19.37534621
19.37546222
19.37558206
19.37570635
19.37583572
19.37597081
19.37611226
19.37626075
19.37641694
19.37658152
19.3767552
19.37693866
19.37713263
19.37733781
19.37755491
19.37778464
19.3780277
19.37828474
19.37855642
19.37884333
19.37914605
19.37946506
19.37980078
19.38015355
19.3805236
19.38091102
19.38131578
19.38173768
19.38217633
19.38263113
19.38310128
19.38358571
19.38408311
19.38459188
19.38511013
19.38563565
19.38616596
19.38669825
19.38722942
19.38775608
19.38827459
19.38878108
19.38927147
19.38974157
19.39018708
19.39060369
19.39098713
19.39133328
19.39163817
19.39189813
19.39210985
19.39227041
19.39237739
19.3924289
19.39242353
19.39236055
19.39223986
19.39206191
19.39182774
19.39153893
19.39119756
19.39080617
19.39036765
19.38988523
19.38936233
19.38880255
19.38820955
19.38758701
19.38693851
19.38626755
19.38557742
19.38487122
19.38415177
19.38342163
19.38268306
19.38193803
19.3811882
19.38043495
19.37967936
19.37892229
19.37816434
19.37740593
19.37664727
19.37588848
19.37512955
19.37481366
19.37494166
19.3750707
19.37520148
19.37533473
19.37547115
19.37561148
19.37575644
19.37590679
19.37606328
19.37622669
19.3763978
19.37657743
19.37676638
19.37696548
19.37717559
19.37739755
19.37763222
19.37788047
19.37814316
19.37842114
19.37871524
19.3790263
19.37935508
19.37970232
19.38006871
19.38045484
19.38086124
19.38128831
19.38173632
19.38220543
19.38269557
19.38320651
19.3837378
19.38428872
19.3848583
19.38544527
19.38604802
19.38666464
19.38729283
19.38792995
19.38857297
19.38921849
19.38986275
19.39050166
19.39113077
19.3917454
19.39234061
19.39291127
19.39345218
19.39395809
19.39442381
19.39484429
19.39521472
19.39553064
19.395788
19.39598324
19.39611341
19.39617622
19.39616994
19.39609369
19.39594735
19.39573146
19.3954473
19.3950968
19.39468251
19.39420752
19.39367536
19.39308996
19.3924555
19.39177636
19.391057
19.3903019
19.38951543
19.38870182
19.38786509
19.38700899
19.38613696
19.38525209
19.38435713
19.38345445
19.38254606
19.38163363
19.38071848
19.37980161
19.37888377
19.37796543
19.37704687
19.37612821
19.37520945
19.3748243
19.37497368
19.37512428
19.37527692
19.37543244
19.37559166
19.37575544
19.37592464
19.37610012
19.37628278
19.37647351
19.37667325
19.37688292
19.37710348
19.3773359
19.37758117
19.37784029
19.37811426
19.37840409
19.37871079
19.37903535
19.37937877
19.379742
19.38012595
19.38053149
19.38095941
19.38141044
19.38188518
19.3823841
19.38290756
19.38345571
19.38402851
19.38462568
19.38524671
19.38589079
19.38655676
19.38724317
19.38794815
19.38866945
19.38940442
19.39014996
19.39090254
19.39165818
19.3924125
19.39316067
19.39389753
19.39461756
19.39531496
19.39598374
19.39661777
19.39721088
19.39775699
19.39825014
19.3986847
19.39905539
19.39935745
19.39958671
19.39973967
19.39981365
19.39980662
19.39971753
19.39954624
19.39929342
19.39896055
19.39854993
19.39806455
19.39750806
19.39688464
19.3961989
19.39545576
19.3946604
19.39381804
19.39293395
19.39201328
19.39106099
19.3900818
19.3890801
19.38805991
19.38702488
19.3859782
19.38492264
19.38386057
19.3827939
19.38172417
19.38065257
19.37957992
19.37850679
19.37743349
19.37636015
19.37528675
19.37483448
19.37500433
19.37517557
19.37534913
19.37552596
19.37570701
19.37589324
19.37608563
19.37628517
19.37649288
19.37670977
19.3769369
19.37717534
19.37742617
19.3776905
19.37796945
19.37826416
19.37857577
19.37890544
19.37925431
19.37962353
19.38001421
19.38042745
19.3808643
19.38132575
19.38181272
19.38232601
19.38286634
19.38343426
19.38403017
19.38465425
19.38530648
19.38598656
19.3866939
19.38742759
19.38818636
19.38896852
19.38977199
19.39059421
19.39143216
19.39228232
19.39314067
19.3940027
19.39486337
19.39571723
19.39655834
19.39738041
19.39817682
19.3989407
19.39966505
19.4003428
19.40096696
19.40153072
19.40202762
19.4024516
19.40279719
19.40305961
19.40323485
19.40331981
19.40331219
19.40321077
19.4030154
19.40272685
19.40234684
19.40187799
19.40132377
19.40068837
19.39997657
19.3991937
19.3983454
19.3974376
19.39647631
19.39546755
19.39441723
19.39333103
19.39221434
19.39107219
19.38990916
19.38872941
19.38753658
19.38633384
19.38512385
19.38390879
19.38269042
19.38147005
19.38024863
19.37902677
19.37780482
19.3765829
19.37536098
19.37484414
19.37503342
19.37522424
19.37541765
19.37561471
19.37581647
19.37602401
19.37623841
19.3764608
19.37669228
19.37693401
19.37718715
19.3774529
19.37773248
19.3780271
19.37833804
19.37866655
19.37901392
19.37938144
19.37977038
19.38018203
19.38061764
19.38107843
19.38156559
19.38208022
19.38262335
19.3831959
19.38379867
19.38443228
19.38509719
19.38579364
19.38652158
19.38728072
19.3880704
19.38888963
19.389737
19.39061065
19.39150825
19.39242698
19.39336347
19.39431379
19.39527347
19.39623746
19.39720016
19.39815543
19.39909666
19.40001679
19.4009084
19.40176378
19.40257507
19.40333435
19.40403374
19.40466562
19.40522268
19.40569813
19.40608581
19.40638033
19.40657718
19.40667288
19.40666483
19.40655167
19.40633323
19.40601038
19.40558507
19.40506027
19.40443988
19.40372863
19.40293192
19.40205572
19.40110643
19.40009069
19.39901527
19.39788695
19.39671234
19.39549783
19.39424947
19.39297289
19.39167322
19.39035511
19.38902262
19.38767929
19.38632808
19.38497142
19.38361125
19.38224901
19.38088576
19.37952215
19.37815856
19.37679509
19.3754317
19.37485322
19.37506076
19.37526999
19.37548206
19.37569814
19.37591937
19.37614695
19.37638205
19.37662591
19.37687975
19.37714483
19.37742244
19.37771388
19.37802049
19.37834362
19.37868465
19.37904497
19.37942599
19.37982912
19.38025579
19.38070739
19.38118531
19.38169089
19.38222544
19.38279018
19.38338625
19.38401467
19.38467633
19.38537192
19.38610196
19.38686672
19.38766617
19.38850001
19.38936753
19.39026766
19.39119886
19.39215911
19.39314588
19.39415608
19.395186
19.39623137
19.39728725
19.39834811
19.39940779
19.40045954
19.40149606
19.40250958
19.40349191
19.40443456
19.40532883
19.40616595
19.40693724
19.40763423
19.40824886
19.4087736
19.40920162
19.40952695
19.4097446
19.4098507
19.40984239
19.40971815
19.4094778
19.40912232
19.40865388
19.40807577
19.40739234
19.40660882
19.40573122
19.40476617
19.40372073
19.40260228
19.40141832
19.40017633
19.39888364
19.39754729
19.39617397
19.39476987
19.39334067
19.39189146
19.39042672
19.38895032
19.38746551
19.38597495
19.38448074
19.38298446
19.38148724
19.37998977
19.37849245
19.37699536
19.37549843
19.37486166
19.37508619
19.37531254
19.37554197
19.37577574
19.37601508
19.37626129
19.37651566
19.37677949
19.37705413
19.37734094
19.37764131
19.37795666
19.37828843
19.37863808
19.37900712
19.37939705
19.37980941
19.38024571
19.38070751
19.38119633
19.38171367
19.38226099
19.38283972
19.38345118
19.38409662
19.38477716
19.38549377
19.38624722
19.38703807
19.38786665
19.38873294
19.38963661
19.39057694
19.39155277
19.39256246
19.39360384
19.39467419
19.39577016
19.39688777
19.39802237
19.39916864
19.40032057
19.40147147
19.40261403
19.40374031
19.40484187
19.40590977
19.40693478
19.40790741
19.4088181
19.40965737
19.41041599
19.41108513
19.41165658
19.41212287
19.41247747
19.41271492
19.412831
19.41282257
19.41268798
19.41242705
19.41204085
19.41153175
19.41090339
19.41016051
19.40930886
19.40835501
19.40730621
19.40617021
19.40495504
19.40366892
19.40232
19.40091628
19.39946544
19.39797476
19.39645098
19.39490026
19.39332813
19.39173946
19.39013843
19.38852855
19.3869127
19.38529312
19.38367152
19.38204908
19.38042655
19.37880429
19.3771824
19.37556076
19.37486942
19.37510955
19.37535163
19.37559701
19.37584702
19.37610301
19.37636634
19.3766384
19.37692059
19.37721434
19.37752112
19.37784241
19.37817973
19.37853462
19.37890866
19.37930345
19.37972061
19.38016178
19.3806286
19.38112271
19.38164577
19.38219939
19.38278513
19.38340453
19.38405902
19.38474994
19.3854785
19.38624575
19.38705254
19.38789949
19.38878694
19.38971492
19.39068308
19.39169068
19.39273648
19.39381875
19.3949352
19.39608292
19.39725833
19.3984572
19.39967456
19.4009047
19.40214118
19.40337685
19.40460383
19.40581362
19.40699712
19.40814474
19.40924651
19.41029223
19.41127159
19.41217435
19.41299056
19.41371069
19.41432585
19.41482799
19.41521004
19.41546611
19.41559163
19.41558321
19.41543909
19.41515906
19.41474428
19.41419735
19.41352219
19.41272395
19.41180885
19.410784
19.40965726
19.40843699
19.40713188
19.40575078
19.40430251
19.40279569
19.4012386
19.39963905
19.39800431
19.396341
19.39465505
19.39295167
19.39123535
19.38950984
19.3877782
19.38604282
19.38430549
19.38256745
19.38082948
19.37909196
19.37735493
19.37561824
19.37487645
19.3751307
19.37538702
19.37564683
19.37591155
19.37618261
19.37646144
19.37674951
19.37704832
19.37735938
19.37768424
19.37802447
19.37838169
19.37875753
19.37915366
19.37957178
19.38001361
19.38048089
19.38097535
19.38149877
19.38205287
19.38263938
19.38325997
19.38391626
19.38460979
19.38534199
19.38611415
19.3869274
19.38778264
19.38868057
19.38962155
19.39060563
19.39163247
19.39270128
19.3938108
19.39495921
19.39614408
19.39736236
19.39861027
19.39988334
19.40117629
19.40248309
19.40379692
19.40511017
19.40641447
19.40770078
19.40895942
19.41018018
19.41135244
19.4124653
19.41350777
19.41446894
19.41533816
19.41610524
19.41676069
19.4172959
19.41770332
19.41797662
19.41811094
19.41810265
19.41794985
19.41765236
19.4172114
19.41662977
19.41591169
19.41506266
19.41408937
19.41299942
19.41180121
19.4105037
19.40911619
19.40764812
19.40610892
19.40450778
19.40285353
19.4011545
19.39941842
19.39765233
19.39586255
19.39405458
19.39223319
19.39040234
19.38856527
19.38672448
19.38488185
19.38303868
19.38119575
19.37935342
19.37751173
19.37567049
19.37488269
19.3751495
19.37541848
19.37569113
19.37596893
19.37625337
19.37654599
19.37684831
19.37716189
19.37748835
19.37782929
19.37818637
19.37856129
19.37895576
19.37937154
19.37981042
19.3802742
19.38076471
19.38128379
19.38183329
19.38241503
19.38303083
19.38368246
19.38437162
19.38509994
19.38586893
19.38667996
19.38753423
19.3884327
19.38937612
19.39036488
19.39139906
19.39247832
19.39360185
19.39476834
19.39597591
19.39722202
19.39850347
19.39981634
19.40115591
19.40251666
19.40389227
19.40527554
19.40665847
19.40803228
19.40938742
19.41071369
19.41200031
19.41323607
19.41440948
19.41550889
19.41652278
19.41743986
19.41824938
19.41894128
19.41950642
19.41993681
19.42022577
19.42036812
19.42036003
19.4201995
19.41988632
19.41942183
19.41880898
19.41805225
19.4171575
19.41613181
19.41498326
19.41372074
19.41235375
19.41089213
19.40934589
19.40772499
19.40603915
19.4042977
19.40250942
19.40068248
19.3988243
19.3969415
19.3950399
19.39312449
19.39119943
19.38926809
19.38733309
19.3853964
19.38345932
19.38152267
19.37958679
19.37765168
19.37571712
19.37488812
19.37516583
19.37544582
19.37572962
19.37601879
19.37631488
19.37661947
19.37693417
19.3772606
19.37760043
19.37795535
19.37832708
19.37871739
19.37912806
19.37956093
19.38001786
19.38050073
19.38101146
19.38155195
19.38212414
19.38272993
19.38337123
19.38404987
19.38476765
19.38552627
19.3863273
19.3871722
19.38806222
19.38899838
19.38998145
19.3910119
19.39208979
19.39321481
19.39438612
19.39560238
19.39686165
19.3981613
19.39949802
19.40086772
19.40226552
19.40368567
19.40512157
19.40656574
19.40800983
19.40944465
19.41086025
19.41224595
19.41359048
19.41488212
19.41610881
19.41725837
19.41831871
19.419278
19.42012496
19.42084901
19.4214406
19.42189131
19.42219414
19.42234364
19.4223358
19.42216853
19.42184161
19.42135644
19.42071615
19.41992545
19.41899051
19.41791875
19.41671868
19.41539965
19.41397162
19.41244493
19.41083007
19.40913748
19.40737735
19.40555945
19.40369298
19.40178647
19.39984766
19.39788348
19.39589999
19.39390239
19.391895
19.38988132
19.38786407
19.38584525
19.38382623
19.38180781
19.37979032
19.37777374
19.37575778
19.37489269
19.37517961
19.37546887
19.37576207
19.37606082
19.37636673
19.37668142
19.37700656
19.37734382
19.37769493
19.37806164
19.37844572
19.37884901
19.37927334
19.37972063
19.38019279
19.38069177
19.38121955
19.38177811
19.38236944
19.38299554
19.38365836
19.38435981
19.38510176
19.38588596
19.38671408
19.38758759
19.38850782
19.38947584
19.39049246
19.39155816
19.39267304
19.39383678
19.39504855
19.39630697
19.39761003
19.39895507
19.40033865
19.40175658
19.4032038
19.40467438
19.4061615
19.40765742
19.4091535
19.41064023
19.41210727
19.41354358
19.41493745
19.41627671
19.41754884
19.41874118
19.41984117
19.4208365
19.42171544
19.42246699
19.4230812
19.42354931
19.42386402
19.42401969
19.42401212
19.42383915
19.42350055
19.42299779
19.42233413
19.4215145
19.42054531
19.41943432
19.41819038
19.41682324
19.41534325
19.41376118
19.41208794
19.4103344
19.40851113
19.40662827
19.40469539
19.40272132
19.4007141
19.39868089
19.39662798
19.39456071
19.39248357
19.39040016
19.38831326
19.38622494
19.38413658
19.38204897
19.37996245
19.37787696
19.37579217
19.37489639
19.37519073
19.37548748
19.37578828
19.37609477
19.3764086
19.37673145
19.37706502
19.37741103
19.37777126
19.37814749
19.37854155
19.37895532
19.3793907
19.37984963
19.38033409
19.38084609
19.38138765
19.38196081
19.38256763
19.38321014
19.38389036
19.38461026
19.38537175
19.38617665
19.38702667
19.38792334
19.38886802
19.38986183
19.39090561
19.39199986
19.39314471
19.39433983
19.39558439
19.39687699
19.39821558
19.39959744
19.40101906
19.40247613
19.40396349
19.40547505
19.4070038
19.4085418
19.41008018
19.41160915
19.41311808
19.41459561
19.41602968
19.41740775
19.41871693
19.41994418
19.42107652
19.42210129
19.42300634
19.42378037
19.42441306
19.42489541
19.42521987
19.4253806
19.4253733
19.4251957
19.4248476
19.42433053
19.42364784
19.42280463
19.42180755
19.42066459
19.41938492
19.41797858
19.41645628
19.41482913
19.41310839
19.41130526
19.40943064
19.40749498
19.40550813
19.40347918
19.40141639
19.39932715
19.39721789
19.39509412
19.39296041
19.39082046
19.38867712
19.38653247
19.38438792
19.38224428
19.38010185
19.37796054
19.37582001
19.37489918
19.37519914
19.37550155
19.37580809
19.37612042
19.37644024
19.37676926
19.37710919
19.37746182
19.37782893
19.37821235
19.37861395
19.37903564
19.37947937
19.3799471
19.38044087
19.3809627
19.38151468
19.38209888
19.3827174
19.38337232
19.3840657
19.38479955
19.38557583
19.38639639
19.38726298
19.38817717
19.38914036
19.39015369
19.39121803
19.39233391
19.39350145
19.39472035
19.39598975
19.39730826
19.39867378
19.40008356
19.40153403
19.40302081
19.40453863
19.4060813
19.40764167
19.40921165
19.41078216
19.41234324
19.41388403
19.41539291
19.41685757
19.41826519
19.41960259
19.42085642
19.42201341
19.4230606
19.42398557
19.42477673
19.42542354
19.42591676
19.42624866
19.42641328
19.42640619
19.42622511
19.42586979
19.42534183
19.42464467
19.42378352
19.42276521
19.42159793
19.42029107
19.41885492
19.41730045
19.41563902
19.41388217
19.41204134
19.41012771
19.40815194
19.40612411
19.4040535
19.40194855
19.3998168
19.3976648
19.39549818
19.39332159
19.39113879
19.38895267
19.38676536
19.38457825
19.38239217
19.3802074
19.37802383
19.37584109
19.37490105
19.37520477
19.37551097
19.37582136
19.37613761
19.37646145
19.37679459
19.3771388
19.37749585
19.37786758
19.37825582
19.37866248
19.37908948
19.3795388
19.38001243
19.38051243
19.38104086
19.38159983
19.38219143
19.3828178
19.38348104
19.38418324
19.38492645
19.38571265
19.38654371
19.38742142
19.38834736
19.38932297
19.3903494
19.39142754
19.39255793
19.39374072
19.39497558
19.39626167
19.39759757
19.3989812
19.40040974
19.4018796
19.40338635
19.40492465
19.40648824
19.40806989
19.40966137
19.41125352
19.41283621
19.41439846
19.41592845
19.41741372
19.41884125
19.42019766
19.42146941
19.42264303
19.42370534
19.42464375
19.42544647
19.4261028
19.42660336
19.4269403
19.42710754
19.42710062
19.42691719
19.42655702
19.42602172
19.42531481
19.42444158
19.42340897
19.42222531
19.42090014
19.41944391
19.41786777
19.41618326
19.4144021
19.41253591
19.41059602
19.40859327
19.40653787
19.40443924
19.40230595
19.40014562
19.3979649
19.39576948
19.39356409
19.3913525
19.38913766
19.38692169
19.38470602
19.38249144
19.38027824
19.37806631
19.37585525
19.37490199
19.37520759
19.3755157
19.37582801
19.37614623
19.37647208
19.3768073
19.37715364
19.37751292
19.37788696
19.37827763
19.37868682
19.37911649
19.37956861
19.3800452
19.38054833
19.38108007
19.38164254
19.38223786
19.38286816
19.38353558
19.38424221
19.38499011
19.38578128
19.38661762
19.3875009
19.38843275
19.38941459
19.3904476
19.39153267
19.39267035
19.39386078
19.39510366
19.39639813
19.39774278
19.39913549
19.40057346
19.40205306
19.40356985
19.40511845
19.40669256
19.40828489
19.40988719
19.41149022
19.41308379
19.41465682
19.41619743
19.41769307
19.41913062
19.4204966
19.42177737
19.42295936
19.42402929
19.42497446
19.42578301
19.42644414
19.4269484
19.42728787
19.42745644
19.4274496
19.42726499
19.42690239
19.4263634
19.42565158
19.42477228
19.42373247
19.42254057
19.42120618
19.41973985
19.41815281
19.4164567
19.41466331
19.41278436
19.41083127
19.40881495
19.40674569
19.40463299
19.40248544
19.40031075
19.3981156
19.39590572
19.39368585
19.39145981
19.38923054
19.38700019
19.38477016
19.38254128
19.38031381
19.37808764
19.37586235
19.37490199
19.37520759
19.3755157
19.37582801
19.37614623
19.37647208
19.3768073
19.37715365
19.37751292
19.37788696
19.37827763
19.37868682
19.37911649
19.37956861
19.3800452
19.38054833
19.38108007
19.38164254
19.38223786
19.38286816
19.38353558
19.38424221
19.38499011
19.38578128
19.38661762
19.3875009
19.38843275
19.38941459
19.3904476
19.39153267
19.39267035
19.39386078
19.39510366
19.39639814
19.39774278
19.39913549
19.40057346
19.40205306
19.40356985
19.40511845
19.40669256
19.40828489
19.40988719
19.41149022
19.41308379
19.41465682
19.41619743
19.41769307
19.41913062
19.4204966
19.42177737
19.42295936
19.42402929
19.42497446
19.42578301
19.42644414
19.4269484
19.42728787
19.42745644
19.4274496
19.42726499
19.42690239
19.4263634
19.42565158
19.42477228
19.42373247
19.42254056
19.42120618
19.41973985
19.41815281
19.4164567
19.41466331
19.41278436
19.41083127
19.40881495
19.40674569
19.40463298
19.40248544
19.40031075
19.3981156
19.39590572
19.39368585
19.39145981
19.38923054
19.38700019
19.38477016
19.38254128
19.38031381
19.37808764
19.37586235
19.37490105
19.37520477
19.37551097
19.37582136
19.37613761
19.37646145
19.37679459
19.3771388
19.37749585
19.37786758
19.37825582
19.37866248
19.37908948
19.3795388
19.38001243
19.38051243
19.38104086
19.38159983
19.38219143
19.3828178
19.38348104
19.38418325
19.38492645
19.38571265
19.38654371
19.38742142
19.38834737
19.38932297
19.3903494
19.39142754
19.39255793
19.39374072
19.39497558
19.39626167
19.39759757
19.3989812
19.40040974
19.4018796
19.40338635
19.40492466
19.40648825
19.40806989
19.40966137
19.41125352
19.41283622
19.41439846
19.41592845
19.41741372
19.41884125
19.42019766
19.42146941
19.42264303
19.42370534
19.42464375
19.42544647
19.4261028
19.42660336
19.4269403
19.42710754
19.42710062
19.42691719
19.42655702
19.42602172
19.42531481
19.42444158
19.42340897
19.42222531
19.42090014
19.41944391
19.41786777
19.41618326
19.4144021
19.41253591
19.41059602
19.40859327
19.40653787
19.40443924
19.40230595
19.40014562
19.3979649
19.39576948
19.39356408
19.3913525
19.38913766
19.38692169
19.38470602
19.38249144
19.38027824
19.37806631
19.37585525
19.37489918
19.37519914
19.37550155
19.37580809
19.37612042
19.37644024
19.37676926
19.37710919
19.37746182
19.37782893
19.37821235
19.37861395
19.37903565
19.37947937
19.3799471
19.38044087
19.3809627
19.38151468
19.38209889
19.38271741
19.38337233
19.3840657
19.38479956
19.38557583
19.38639639
19.38726298
19.38817717
19.38914036
19.39015369
19.39121803
19.39233391
19.39350145
19.39472035
19.39598976
19.39730826
19.39867379
19.40008356
19.40153403
19.40302081
19.40453864
19.4060813
19.40764168
19.40921165
19.41078217
19.41234324
19.41388404
19.41539291
19.41685757
19.41826519
19.41960259
19.42085642
19.42201341
19.4230606
19.42398558
19.42477674
19.42542354
19.42591676
19.42624866
19.42641328
19.4264062
19.42622511
19.42586979
19.42534183
19.42464467
19.42378352
19.42276521
19.42159793
19.42029107
19.41885492
19.41730045
19.41563902
19.41388217
19.41204134
19.4101277
19.40815194
19.40612411
19.4040535
19.40194855
19.3998168
19.3976648
19.39549818
19.39332159
19.39113878
19.38895267
19.38676535
19.38457825
19.38239217
19.3802074
19.37802383
19.37584109
19.37489639
19.37519073
19.37548748
19.37578829
19.37609477
19.37640861
19.37673145
19.37706502
19.37741104
19.37777126
19.37814749
19.37854155
19.37895532
19.3793907
19.37984963
19.38033409
19.38084609
19.38138765
19.38196081
19.38256763
19.38321014
19.38389036
19.38461026
19.38537175
19.38617666
19.38702667
19.38792334
19.38886802
19.38986183
19.39090561
19.39199986
19.39314471
19.39433983
19.39558439
19.39687699
19.39821558
19.39959744
19.40101906
19.40247613
19.40396349
19.40547505
19.4070038
19.40854181
19.41008018
19.41160915
19.41311809
19.41459561
19.41602968
19.41740776
19.41871694
19.41994419
19.42107653
19.42210129
19.42300635
19.42378037
19.42441307
19.42489542
19.42521987
19.4253806
19.4253733
19.42519571
19.42484761
19.42433053
19.42364784
19.42280463
19.42180755
19.42066459
19.41938492
19.41797858
19.41645628
19.41482913
19.41310839
19.41130526
19.40943063
19.40749498
19.40550813
19.40347917
19.40141639
19.39932715
19.39721789
19.39509412
19.39296041
19.39082046
19.38867711
19.38653247
19.38438792
19.38224428
19.38010185
19.37796054
19.37582001
19.37489269
19.37517961
19.37546887
19.37576208
19.37606083
19.37636673
19.37668142
19.37700656
19.37734382
19.37769493
19.37806164
19.37844572
19.37884901
19.37927335
19.37972063
19.38019279
19.38069177
19.38121955
19.38177811
19.38236945
19.38299554
19.38365836
19.38435982
19.38510176
19.38588597
19.38671408
19.38758759
19.38850782
19.38947584
19.39049246
19.39155816
19.39267305
19.39383679
19.39504856
19.39630697
19.39761004
19.39895507
19.40033866
19.40175658
19.4032038
19.40467438
19.4061615
19.40765742
19.4091535
19.41064023
19.41210728
19.41354358
19.41493746
19.41627671
19.41754884
19.41874119
19.41984117
19.42083651
19.42171544
19.422467
19.4230812
19.42354931
19.42386403
19.42401969
19.42401213
19.42383915
19.42350055
19.42299779
19.42233414
19.4215145
19.42054531
19.41943432
19.41819038
19.41682323
19.41534325
19.41376117
19.41208794
19.41033439
19.40851112
19.40662827
19.40469539
19.40272132
19.4007141
19.39868089
19.39662797
19.39456071
19.39248357
19.39040016
19.38831326
19.38622494
19.38413658
19.38204897
19.37996245
19.37787696
19.37579217
19.37488812
19.37516584
19.37544582
19.37572962
19.37601879
19.37631488
19.37661947
19.37693417
19.3772606
19.37760043
19.37795535
19.37832708
19.37871739
19.37912806
19.37956094
19.38001787
19.38050074
19.38101146
19.38155195
19.38212414
19.38272994
19.38337123
19.38404987
19.38476765
19.38552627
19.38632731
19.38717221
19.38806222
19.38899838
19.38998146
19.3910119
19.3920898
19.39321481
19.39438613
19.39560239
19.39686165
19.3981613
19.39949802
19.40086773
19.40226553
19.40368568
19.40512158
19.40656574
19.40800983
19.40944465
19.41086025
19.41224595
19.41359049
19.41488212
19.41610881
19.41725838
19.41831871
19.41927801
19.42012496
19.42084902
19.4214406
19.42189132
19.42219414
19.42234364
19.42233581
19.42216854
19.42184161
19.42135644
19.42071615
19.41992545
19.41899051
19.41791875
19.41671868
19.41539965
19.41397162
19.41244493
19.41083007
19.40913748
19.40737735
19.40555945
19.40369298
19.40178646
19.39984765
19.39788348
19.39589999
19.39390239
19.391895
19.38988131
19.38786406
19.38584525
19.38382623
19.3818078
19.37979032
19.37777373
19.37575778
19.37488269
19.3751495
19.37541848
19.37569113
19.37596893
19.37625338
19.37654599
19.37684831
19.3771619
19.37748835
19.37782929
19.37818637
19.37856129
19.37895576
19.37937155
19.37981042
19.38027421
19.38076472
19.3812838
19.38183329
19.38241504
19.38303084
19.38368246
19.38437162
19.38509994
19.38586893
19.38667997
19.38753423
19.38843271
19.38937612
19.39036489
19.39139907
19.39247832
19.39360186
19.39476835
19.39597591
19.39722202
19.39850348
19.39981634
19.40115591
19.40251667
19.40389227
19.40527554
19.40665848
19.40803229
19.40938743
19.41071369
19.41200032
19.41323608
19.41440948
19.4155089
19.41652278
19.41743987
19.41824939
19.41894128
19.41950642
19.41993682
19.42022577
19.42036812
19.42036003
19.42019951
19.41988633
19.41942183
19.41880898
19.41805225
19.4171575
19.41613181
19.41498325
19.41372074
19.41235375
19.41089213
19.40934589
19.40772499
19.40603915
19.40429769
19.40250942
19.40068248
19.3988243
19.3969415
19.3950399
19.39312449
19.39119943
19.38926809
19.38733309
19.38539639
19.38345932
19.38152267
19.37958679
19.37765168
19.37571712
19.37487645
19.3751307
19.37538702
19.37564683
19.37591155
19.37618261
19.37646144
19.37674951
19.37704832
19.37735938
19.37768424
19.37802448
19.37838169
19.37875753
19.37915367
19.37957179