/*--------------------------------*- C++ -*----------------------------------*\
| =========                 |                                                 |
| \\      /  F ield         | foam-extend: Open Source CFD                    |
|  \\    /   O peration     | Version:     4.1                                |
|   \\  /    A nd           | Web:         http://www.foam-extend.org         |
|    \\/     M anipulation  |                                                 |
\*---------------------------------------------------------------------------*/
FoamFile
{
    version     2.0;
    format      ascii;
    class       pointVectorField;
    location    "0";
    object      pointW;
}
// * * * * * * * * * * * * * * * * * * * * * * * * * * * * * * * * * * * * * //

dimensions      [0 1 0 0 0 0 0];

internalField   nonuniform List<vector> 
1344
(
(-3.82746e-17 4.20315e-17 0)
(0.104974 0.143166 0)
(0.205913 0.28083 0)
(0.29894 0.407702 0)
(0.380478 0.518906 0)
(0.447394 0.610169 0)
(0.497118 0.677984 0)
(0.527738 0.719744 0)
(0.538078 0.733845 0)
(0.527738 0.719744 0)
(0.497118 0.677984 0)
(0.447394 0.610169 0)
(0.380478 0.518906 0)
(0.29894 0.407702 0)
(0.205913 0.28083 0)
(0.104974 0.143166 0)
(1.17491e-16 6.6006e-17 0)
(-0.104974 -0.143166 0)
(-0.205913 -0.28083 0)
(-0.29894 -0.407702 0)
(-0.380478 -0.518906 0)
(-0.447394 -0.610169 0)
(-0.497118 -0.677984 0)
(-0.527738 -0.719744 0)
(-0.538078 -0.733845 0)
(-0.527738 -0.719744 0)
(-0.497118 -0.677984 0)
(-0.447394 -0.610169 0)
(-0.380478 -0.518906 0)
(-0.29894 -0.407702 0)
(-0.205913 -0.28083 0)
(-0.104974 -0.143166 0)
(-11.5015 8.84242 0)
(-11.3939 8.97585 0)
(-11.2905 9.10416 0)
(-11.1952 9.2224 0)
(-11.1116 9.32605 0)
(-11.0431 9.41111 0)
(-10.9921 9.47431 0)
(-10.9608 9.51323 0)
(-10.9502 9.52637 0)
(-10.9608 9.51323 0)
(-10.9921 9.47431 0)
(-11.0431 9.41111 0)
(-11.1116 9.32605 0)
(-11.1952 9.2224 0)
(-11.2905 9.10416 0)
(-11.3939 8.97585 0)
(-11.5015 8.84242 0)
(-11.6091 8.70898 0)
(-11.7125 8.58068 0)
(-11.8078 8.46243 0)
(-11.8913 8.35879 0)
(-11.9599 8.27373 0)
(-12.0109 8.21052 0)
(-12.0422 8.1716 0)
(-12.0528 8.15846 0)
(-12.0422 8.1716 0)
(-12.0109 8.21052 0)
(-11.9599 8.27373 0)
(-11.8913 8.35879 0)
(-11.8078 8.46243 0)
(-11.7125 8.58068 0)
(-11.6091 8.70898 0)
(-22.185 17.8625 0)
(-22.0758 17.9861 0)
(-21.9707 18.1048 0)
(-21.8739 18.2143 0)
(-21.7891 18.3102 0)
(-21.7194 18.3889 0)
(-21.6677 18.4474 0)
(-21.6358 18.4834 0)
(-21.6251 18.4956 0)
(-21.6358 18.4834 0)
(-21.6677 18.4474 0)
(-21.7194 18.3889 0)
(-21.7891 18.3102 0)
(-21.8739 18.2143 0)
(-21.9707 18.1048 0)
(-22.0758 17.9861 0)
(-22.185 17.8625 0)
(-22.2943 17.739 0)
(-22.3993 17.6203 0)
(-22.4961 17.5108 0)
(-22.581 17.4149 0)
(-22.6506 17.3362 0)
(-22.7024 17.2777 0)
(-22.7342 17.2416 0)
(-22.745 17.2295 0)
(-22.7342 17.2416 0)
(-22.7024 17.2777 0)
(-22.6506 17.3362 0)
(-22.581 17.4149 0)
(-22.4961 17.5108 0)
(-22.3993 17.6203 0)
(-22.2943 17.739 0)
(-32.0377 26.9848 0)
(-31.9277 27.0983 0)
(-31.8219 27.2074 0)
(-31.7244 27.3079 0)
(-31.6389 27.3961 0)
(-31.5688 27.4684 0)
(-31.5167 27.5221 0)
(-31.4846 27.5552 0)
(-31.4738 27.5664 0)
(-31.4846 27.5552 0)
(-31.5167 27.5221 0)
(-31.5688 27.4684 0)
(-31.6389 27.3961 0)
(-31.7244 27.3079 0)
(-31.8219 27.2074 0)
(-31.9277 27.0983 0)
(-32.0377 26.9848 0)
(-32.1477 26.8713 0)
(-32.2535 26.7622 0)
(-32.351 26.6617 0)
(-32.4364 26.5736 0)
(-32.5066 26.5012 0)
(-32.5587 26.4475 0)
(-32.5908 26.4144 0)
(-32.6016 26.4032 0)
(-32.5908 26.4144 0)
(-32.5587 26.4475 0)
(-32.5066 26.5012 0)
(-32.4364 26.5736 0)
(-32.351 26.6617 0)
(-32.2535 26.7622 0)
(-32.1477 26.8713 0)
(-41.0537 36.1329 0)
(-40.9438 36.2363 0)
(-40.8382 36.3357 0)
(-40.7408 36.4273 0)
(-40.6555 36.5077 0)
(-40.5854 36.5736 0)
(-40.5334 36.6225 0)
(-40.5013 36.6527 0)
(-40.4905 36.6629 0)
(-40.5013 36.6527 0)
(-40.5334 36.6225 0)
(-40.5854 36.5736 0)
(-40.6555 36.5077 0)
(-40.7408 36.4273 0)
(-40.8382 36.3357 0)
(-40.9438 36.2363 0)
(-41.0537 36.1329 0)
(-41.1635 36.0295 0)
(-41.2692 35.9301 0)
(-41.3666 35.8385 0)
(-41.4519 35.7581 0)
(-41.5219 35.6922 0)
(-41.574 35.6433 0)
(-41.606 35.6131 0)
(-41.6168 35.6029 0)
(-41.606 35.6131 0)
(-41.574 35.6433 0)
(-41.5219 35.6922 0)
(-41.4519 35.7581 0)
(-41.3666 35.8385 0)
(-41.2692 35.9301 0)
(-41.1635 36.0295 0)
(-49.2342 45.2303 0)
(-49.1254 45.3237 0)
(-49.0208 45.4135 0)
(-48.9244 45.4963 0)
(-48.8399 45.5688 0)
(-48.7706 45.6283 0)
(-48.719 45.6726 0)
(-48.6873 45.6998 0)
(-48.6766 45.709 0)
(-48.6873 45.6998 0)
(-48.719 45.6726 0)
(-48.7706 45.6283 0)
(-48.8399 45.5688 0)
(-48.9244 45.4963 0)
(-49.0208 45.4135 0)
(-49.1254 45.3237 0)
(-49.2342 45.2303 0)
(-49.343 45.137 0)
(-49.4477 45.0472 0)
(-49.5441 44.9644 0)
(-49.6286 44.8919 0)
(-49.6979 44.8324 0)
(-49.7495 44.7881 0)
(-49.7812 44.7609 0)
(-49.7919 44.7517 0)
(-49.7812 44.7609 0)
(-49.7495 44.7881 0)
(-49.6979 44.8324 0)
(-49.6286 44.8919 0)
(-49.5441 44.9644 0)
(-49.4477 45.0472 0)
(-49.343 45.137 0)
(-56.5873 54.2008 0)
(-56.4805 54.2843 0)
(-56.3778 54.3646 0)
(-56.2831 54.4386 0)
(-56.2002 54.5035 0)
(-56.1321 54.5567 0)
(-56.0815 54.5963 0)
(-56.0503 54.6206 0)
(-56.0398 54.6288 0)
(-56.0503 54.6206 0)
(-56.0815 54.5963 0)
(-56.1321 54.5567 0)
(-56.2002 54.5035 0)
(-56.2831 54.4386 0)
(-56.3778 54.3646 0)
(-56.4805 54.2843 0)
(-56.5873 54.2008 0)
(-56.6941 54.1173 0)
(-56.7968 54.037 0)
(-56.8915 53.963 0)
(-56.9745 53.8981 0)
(-57.0426 53.8449 0)
(-57.0932 53.8053 0)
(-57.1243 53.781 0)
(-57.1348 53.7727 0)
(-57.1243 53.781 0)
(-57.0932 53.8053 0)
(-57.0426 53.8449 0)
(-56.9745 53.8981 0)
(-56.8915 53.963 0)
(-56.7968 54.037 0)
(-56.6941 54.1173 0)
(-63.1281 62.9693 0)
(-63.0242 63.0432 0)
(-62.9243 63.1142 0)
(-62.8321 63.1797 0)
(-62.7514 63.237 0)
(-62.6851 63.2841 0)
(-62.6359 63.3191 0)
(-62.6056 63.3407 0)
(-62.5954 63.3479 0)
(-62.6056 63.3407 0)
(-62.6359 63.3191 0)
(-62.6851 63.2841 0)
(-62.7514 63.237 0)
(-62.8321 63.1797 0)
(-62.9243 63.1142 0)
(-63.0242 63.0432 0)
(-63.1281 62.9693 0)
(-63.2321 62.8955 0)
(-63.332 62.8245 0)
(-63.4241 62.759 0)
(-63.5049 62.7017 0)
(-63.5711 62.6546 0)
(-63.6204 62.6196 0)
(-63.6507 62.598 0)
(-63.6609 62.5908 0)
(-63.6507 62.598 0)
(-63.6204 62.6196 0)
(-63.5711 62.6546 0)
(-63.5049 62.7017 0)
(-63.4241 62.759 0)
(-63.332 62.8245 0)
(-63.2321 62.8955 0)
(-68.8784 71.4624 0)
(-68.7782 71.5269 0)
(-68.6819 71.589 0)
(-68.5931 71.6461 0)
(-68.5153 71.6962 0)
(-68.4514 71.7374 0)
(-68.4039 71.7679 0)
(-68.3747 71.7867 0)
(-68.3648 71.7931 0)
(-68.3747 71.7867 0)
(-68.4039 71.7679 0)
(-68.4514 71.7374 0)
(-68.5153 71.6962 0)
(-68.5931 71.6461 0)
(-68.6819 71.589 0)
(-68.7782 71.5269 0)
(-68.8784 71.4624 0)
(-68.9786 71.3979 0)
(-69.075 71.3359 0)
(-69.1638 71.2787 0)
(-69.2416 71.2286 0)
(-69.3054 71.1875 0)
(-69.3529 71.1569 0)
(-69.3821 71.1381 0)
(-69.392 71.1318 0)
(-69.3821 71.1381 0)
(-69.3529 71.1569 0)
(-69.3054 71.1875 0)
(-69.2416 71.2286 0)
(-69.1638 71.2787 0)
(-69.075 71.3359 0)
(-68.9786 71.3979 0)
(-73.8667 79.609 0)
(-73.7711 79.6646 0)
(-73.6792 79.718 0)
(-73.5944 79.7672 0)
(-73.5202 79.8103 0)
(-73.4592 79.8458 0)
(-73.4139 79.8721 0)
(-73.386 79.8883 0)
(-73.3766 79.8937 0)
(-73.386 79.8883 0)
(-73.4139 79.8721 0)
(-73.4592 79.8458 0)
(-73.5202 79.8103 0)
(-73.5944 79.7672 0)
(-73.6792 79.718 0)
(-73.7711 79.6646 0)
(-73.8667 79.609 0)
(-73.9623 79.5535 0)
(-74.0543 79.5001 0)
(-74.139 79.4509 0)
(-74.2133 79.4077 0)
(-74.2742 79.3723 0)
(-74.3195 79.346 0)
(-74.3474 79.3298 0)
(-74.3568 79.3243 0)
(-74.3474 79.3298 0)
(-74.3195 79.346 0)
(-74.2742 79.3723 0)
(-74.2133 79.4077 0)
(-74.139 79.4509 0)
(-74.0543 79.5001 0)
(-73.9623 79.5535 0)
(-78.1279 87.3411 0)
(-78.0377 87.3881 0)
(-77.9509 87.4333 0)
(-77.871 87.475 0)
(-77.8009 87.5115 0)
(-77.7433 87.5415 0)
(-77.7006 87.5638 0)
(-77.6743 87.5775 0)
(-77.6654 87.5821 0)
(-77.6743 87.5775 0)
(-77.7006 87.5638 0)
(-77.7433 87.5415 0)
(-77.8009 87.5115 0)
(-77.871 87.475 0)
(-77.9509 87.4333 0)
(-78.0377 87.3881 0)
(-78.1279 87.3411 0)
(-78.2181 87.294 0)
(-78.3049 87.2488 0)
(-78.3849 87.2071 0)
(-78.4549 87.1706 0)
(-78.5125 87.1406 0)
(-78.5552 87.1183 0)
(-78.5815 87.1046 0)
(-78.5904 87.1 0)
(-78.5815 87.1046 0)
(-78.5552 87.1183 0)
(-78.5125 87.1406 0)
(-78.4549 87.1706 0)
(-78.3849 87.2071 0)
(-78.3049 87.2488 0)
(-78.2181 87.294 0)
(-81.703 94.5938 0)
(-81.6189 94.6329 0)
(-81.538 94.6704 0)
(-81.4635 94.705 0)
(-81.3982 94.7354 0)
(-81.3446 94.7602 0)
(-81.3047 94.7787 0)
(-81.2802 94.7901 0)
(-81.2719 94.794 0)
(-81.2802 94.7901 0)
(-81.3047 94.7787 0)
(-81.3446 94.7602 0)
(-81.3982 94.7354 0)
(-81.4635 94.705 0)
(-81.538 94.6704 0)
(-81.6189 94.6329 0)
(-81.703 94.5938 0)
(-81.7871 94.5548 0)
(-81.8679 94.5172 0)
(-81.9424 94.4826 0)
(-82.0078 94.4523 0)
(-82.0614 94.4274 0)
(-82.1012 94.4089 0)
(-82.1257 94.3975 0)
(-82.134 94.3937 0)
(-82.1257 94.3975 0)
(-82.1012 94.4089 0)
(-82.0614 94.4274 0)
(-82.0078 94.4523 0)
(-81.9424 94.4826 0)
(-81.8679 94.5172 0)
(-81.7871 94.5548 0)
(-84.6383 101.306 0)
(-84.5611 101.338 0)
(-84.4868 101.368 0)
(-84.4183 101.396 0)
(-84.3583 101.421 0)
(-84.3091 101.441 0)
(-84.2725 101.456 0)
(-84.25 101.465 0)
(-84.2424 101.468 0)
(-84.25 101.465 0)
(-84.2725 101.456 0)
(-84.3091 101.441 0)
(-84.3583 101.421 0)
(-84.4183 101.396 0)
(-84.4868 101.368 0)
(-84.5611 101.338 0)
(-84.6383 101.306 0)
(-84.7156 101.274 0)
(-84.7898 101.244 0)
(-84.8583 101.216 0)
(-84.9183 101.191 0)
(-84.9675 101.171 0)
(-85.0041 101.156 0)
(-85.0267 101.147 0)
(-85.0343 101.144 0)
(-85.0267 101.147 0)
(-85.0041 101.156 0)
(-84.9675 101.171 0)
(-84.9183 101.191 0)
(-84.8583 101.216 0)
(-84.7898 101.244 0)
(-84.7156 101.274 0)
(-86.9862 107.422 0)
(-86.9165 107.447 0)
(-86.8494 107.471 0)
(-86.7876 107.493 0)
(-86.7334 107.512 0)
(-86.6889 107.528 0)
(-86.6559 107.54 0)
(-86.6355 107.547 0)
(-86.6287 107.55 0)
(-86.6355 107.547 0)
(-86.6559 107.54 0)
(-86.6889 107.528 0)
(-86.7334 107.512 0)
(-86.7876 107.493 0)
(-86.8494 107.471 0)
(-86.9165 107.447 0)
(-86.9862 107.422 0)
(-87.056 107.397 0)
(-87.1231 107.373 0)
(-87.1849 107.351 0)
(-87.2391 107.332 0)
(-87.2835 107.316 0)
(-87.3166 107.304 0)
(-87.3369 107.297 0)
(-87.3438 107.294 0)
(-87.3369 107.297 0)
(-87.3166 107.304 0)
(-87.2835 107.316 0)
(-87.2391 107.332 0)
(-87.1849 107.351 0)
(-87.1231 107.373 0)
(-87.056 107.397 0)
(-88.8038 112.891 0)
(-88.7422 112.91 0)
(-88.6828 112.928 0)
(-88.6282 112.945 0)
(-88.5803 112.96 0)
(-88.5409 112.972 0)
(-88.5117 112.981 0)
(-88.4937 112.986 0)
(-88.4877 112.988 0)
(-88.4937 112.986 0)
(-88.5117 112.981 0)
(-88.5409 112.972 0)
(-88.5803 112.96 0)
(-88.6282 112.945 0)
(-88.6828 112.928 0)
(-88.7422 112.91 0)
(-88.8038 112.891 0)
(-88.8655 112.872 0)
(-88.9248 112.854 0)
(-88.9795 112.837 0)
(-89.0274 112.823 0)
(-89.0667 112.811 0)
(-89.096 112.802 0)
(-89.114 112.796 0)
(-89.12 112.794 0)
(-89.114 112.796 0)
(-89.096 112.802 0)
(-89.0667 112.811 0)
(-89.0274 112.823 0)
(-88.9795 112.837 0)
(-88.9248 112.854 0)
(-88.8655 112.872 0)
(-90.1522 117.666 0)
(-90.0991 117.68 0)
(-90.048 117.693 0)
(-90.001 117.705 0)
(-89.9597 117.716 0)
(-89.9259 117.725 0)
(-89.9007 117.731 0)
(-89.8852 117.735 0)
(-89.88 117.736 0)
(-89.8852 117.735 0)
(-89.9007 117.731 0)
(-89.9259 117.725 0)
(-89.9597 117.716 0)
(-90.001 117.705 0)
(-90.048 117.693 0)
(-90.0991 117.68 0)
(-90.1522 117.666 0)
(-90.2053 117.653 0)
(-90.2563 117.64 0)
(-90.3034 117.627 0)
(-90.3446 117.617 0)
(-90.3784 117.608 0)
(-90.4036 117.602 0)
(-90.4191 117.598 0)
(-90.4243 117.596 0)
(-90.4191 117.598 0)
(-90.4036 117.602 0)
(-90.3784 117.608 0)
(-90.3446 117.617 0)
(-90.3034 117.627 0)
(-90.2563 117.64 0)
(-90.2053 117.653 0)
(-91.0967 121.708 0)
(-91.0526 121.718 0)
(-91.0103 121.726 0)
(-90.9712 121.735 0)
(-90.937 121.742 0)
(-90.9089 121.748 0)
(-90.888 121.752 0)
(-90.8752 121.755 0)
(-90.8708 121.756 0)
(-90.8752 121.755 0)
(-90.888 121.752 0)
(-90.9089 121.748 0)
(-90.937 121.742 0)
(-90.9712 121.735 0)
(-91.0103 121.726 0)
(-91.0526 121.718 0)
(-91.0967 121.708 0)
(-91.1408 121.699 0)
(-91.1831 121.69 0)
(-91.2222 121.682 0)
(-91.2564 121.675 0)
(-91.2845 121.669 0)
(-91.3054 121.665 0)
(-91.3182 121.662 0)
(-91.3226 121.661 0)
(-91.3182 121.662 0)
(-91.3054 121.665 0)
(-91.2845 121.669 0)
(-91.2564 121.675 0)
(-91.2222 121.682 0)
(-91.1831 121.69 0)
(-91.1408 121.699 0)
(-91.7062 124.984 0)
(-91.6716 124.989 0)
(-91.6382 124.995 0)
(-91.6075 125 0)
(-91.5806 125.004 0)
(-91.5585 125.008 0)
(-91.5421 125.01 0)
(-91.532 125.012 0)
(-91.5286 125.013 0)
(-91.532 125.012 0)
(-91.5421 125.01 0)
(-91.5585 125.008 0)
(-91.5806 125.004 0)
(-91.6075 125 0)
(-91.6382 124.995 0)
(-91.6716 124.989 0)
(-91.7062 124.984 0)
(-91.7409 124.978 0)
(-91.7742 124.973 0)
(-91.8049 124.968 0)
(-91.8318 124.964 0)
(-91.8539 124.96 0)
(-91.8704 124.957 0)
(-91.8805 124.956 0)
(-91.8839 124.955 0)
(-91.8805 124.956 0)
(-91.8704 124.957 0)
(-91.8539 124.96 0)
(-91.8318 124.964 0)
(-91.8049 124.968 0)
(-91.7742 124.973 0)
(-91.7409 124.978 0)
(-92.0521 127.464 0)
(-92.0272 127.467 0)
(-92.0032 127.47 0)
(-91.981 127.473 0)
(-91.9616 127.475 0)
(-91.9457 127.477 0)
(-91.9339 127.478 0)
(-91.9266 127.479 0)
(-91.9242 127.479 0)
(-91.9266 127.479 0)
(-91.9339 127.478 0)
(-91.9457 127.477 0)
(-91.9616 127.475 0)
(-91.981 127.473 0)
(-92.0032 127.47 0)
(-92.0272 127.467 0)
(-92.0521 127.464 0)
(-92.0771 127.461 0)
(-92.1011 127.459 0)
(-92.1232 127.456 0)
(-92.1426 127.454 0)
(-92.1585 127.452 0)
(-92.1703 127.451 0)
(-92.1776 127.45 0)
(-92.1801 127.45 0)
(-92.1776 127.45 0)
(-92.1703 127.451 0)
(-92.1585 127.452 0)
(-92.1426 127.454 0)
(-92.1232 127.456 0)
(-92.1011 127.459 0)
(-92.0771 127.461 0)
(-92.2082 129.13 0)
(-92.1931 129.131 0)
(-92.1786 129.132 0)
(-92.1653 129.133 0)
(-92.1536 129.133 0)
(-92.144 129.134 0)
(-92.1368 129.135 0)
(-92.1324 129.135 0)
(-92.1309 129.135 0)
(-92.1324 129.135 0)
(-92.1368 129.135 0)
(-92.144 129.134 0)
(-92.1536 129.133 0)
(-92.1653 129.133 0)
(-92.1786 129.132 0)
(-92.1931 129.131 0)
(-92.2082 129.13 0)
(-92.2232 129.129 0)
(-92.2377 129.128 0)
(-92.2511 129.127 0)
(-92.2628 129.126 0)
(-92.2724 129.125 0)
(-92.2795 129.125 0)
(-92.2839 129.124 0)
(-92.2854 129.124 0)
(-92.2839 129.124 0)
(-92.2795 129.125 0)
(-92.2724 129.125 0)
(-92.2628 129.126 0)
(-92.2511 129.127 0)
(-92.2377 129.128 0)
(-92.2232 129.129 0)
(-92.2497 129.966 0)
(-92.2446 129.966 0)
(-92.2398 129.966 0)
(-92.2353 129.966 0)
(-92.2314 129.966 0)
(-92.2282 129.966 0)
(-92.2258 129.967 0)
(-92.2243 129.967 0)
(-92.2238 129.967 0)
(-92.2243 129.967 0)
(-92.2258 129.967 0)
(-92.2282 129.966 0)
(-92.2314 129.966 0)
(-92.2353 129.966 0)
(-92.2398 129.966 0)
(-92.2446 129.966 0)
(-92.2497 129.966 0)
(-92.2547 129.966 0)
(-92.2595 129.966 0)
(-92.264 129.966 0)
(-92.2679 129.966 0)
(-92.2711 129.965 0)
(-92.2735 129.965 0)
(-92.275 129.965 0)
(-92.2755 129.965 0)
(-92.275 129.965 0)
(-92.2735 129.965 0)
(-92.2711 129.965 0)
(-92.2679 129.966 0)
(-92.264 129.966 0)
(-92.2595 129.966 0)
(-92.2547 129.966 0)
(-92.2528 129.966 0)
(-92.2579 129.966 0)
(-92.2627 129.966 0)
(-92.2672 129.966 0)
(-92.2711 129.966 0)
(-92.2743 129.966 0)
(-92.2767 129.967 0)
(-92.2782 129.967 0)
(-92.2787 129.967 0)
(-92.2782 129.967 0)
(-92.2767 129.967 0)
(-92.2743 129.966 0)
(-92.2711 129.966 0)
(-92.2672 129.966 0)
(-92.2627 129.966 0)
(-92.2579 129.966 0)
(-92.2528 129.966 0)
(-92.2478 129.966 0)
(-92.243 129.966 0)
(-92.2385 129.966 0)
(-92.2346 129.966 0)
(-92.2314 129.965 0)
(-92.229 129.965 0)
(-92.2275 129.965 0)
(-92.227 129.965 0)
(-92.2275 129.965 0)
(-92.229 129.965 0)
(-92.2314 129.965 0)
(-92.2346 129.966 0)
(-92.2385 129.966 0)
(-92.243 129.966 0)
(-92.2478 129.966 0)
(-92.2943 129.13 0)
(-92.3094 129.131 0)
(-92.3239 129.132 0)
(-92.3372 129.133 0)
(-92.3489 129.134 0)
(-92.3585 129.134 0)
(-92.3657 129.135 0)
(-92.3701 129.135 0)
(-92.3715 129.135 0)
(-92.3701 129.135 0)
(-92.3657 129.135 0)
(-92.3585 129.134 0)
(-92.3489 129.134 0)
(-92.3372 129.133 0)
(-92.3239 129.132 0)
(-92.3094 129.131 0)
(-92.2943 129.13 0)
(-92.2793 129.129 0)
(-92.2648 129.128 0)
(-92.2514 129.127 0)
(-92.2397 129.126 0)
(-92.2301 129.125 0)
(-92.223 129.125 0)
(-92.2186 129.125 0)
(-92.2171 129.125 0)
(-92.2186 129.125 0)
(-92.223 129.125 0)
(-92.2301 129.125 0)
(-92.2397 129.126 0)
(-92.2514 129.127 0)
(-92.2648 129.128 0)
(-92.2793 129.129 0)
(-92.4504 127.464 0)
(-92.4753 127.467 0)
(-92.4994 127.47 0)
(-92.5215 127.473 0)
(-92.5409 127.475 0)
(-92.5568 127.477 0)
(-92.5686 127.478 0)
(-92.5759 127.479 0)
(-92.5783 127.479 0)
(-92.5759 127.479 0)
(-92.5686 127.478 0)
(-92.5568 127.477 0)
(-92.5409 127.475 0)
(-92.5215 127.473 0)
(-92.4994 127.47 0)
(-92.4753 127.467 0)
(-92.4504 127.464 0)
(-92.4254 127.461 0)
(-92.4014 127.459 0)
(-92.3793 127.456 0)
(-92.3599 127.454 0)
(-92.344 127.452 0)
(-92.3322 127.451 0)
(-92.3249 127.45 0)
(-92.3224 127.45 0)
(-92.3249 127.45 0)
(-92.3322 127.451 0)
(-92.344 127.452 0)
(-92.3599 127.454 0)
(-92.3793 127.456 0)
(-92.4014 127.459 0)
(-92.4254 127.461 0)
(-92.7963 124.984 0)
(-92.8309 124.989 0)
(-92.8643 124.995 0)
(-92.895 125 0)
(-92.9219 125.004 0)
(-92.944 125.008 0)
(-92.9604 125.01 0)
(-92.9705 125.012 0)
(-92.9739 125.013 0)
(-92.9705 125.012 0)
(-92.9604 125.01 0)
(-92.944 125.008 0)
(-92.9219 125.004 0)
(-92.895 125 0)
(-92.8643 124.995 0)
(-92.8309 124.989 0)
(-92.7963 124.984 0)
(-92.7616 124.978 0)
(-92.7283 124.973 0)
(-92.6976 124.968 0)
(-92.6707 124.964 0)
(-92.6486 124.96 0)
(-92.6321 124.957 0)
(-92.622 124.956 0)
(-92.6186 124.955 0)
(-92.622 124.956 0)
(-92.6321 124.957 0)
(-92.6486 124.96 0)
(-92.6707 124.964 0)
(-92.6976 124.968 0)
(-92.7283 124.973 0)
(-92.7616 124.978 0)
(-93.4057 121.709 0)
(-93.4498 121.718 0)
(-93.4921 121.727 0)
(-93.5312 121.735 0)
(-93.5654 121.742 0)
(-93.5935 121.748 0)
(-93.6144 121.752 0)
(-93.6272 121.755 0)
(-93.6316 121.756 0)
(-93.6272 121.755 0)
(-93.6144 121.752 0)
(-93.5935 121.748 0)
(-93.5654 121.742 0)
(-93.5312 121.735 0)
(-93.4921 121.727 0)
(-93.4498 121.718 0)
(-93.4057 121.709 0)
(-93.3617 121.7 0)
(-93.3193 121.691 0)
(-93.2802 121.683 0)
(-93.246 121.675 0)
(-93.2179 121.67 0)
(-93.1971 121.665 0)
(-93.1842 121.663 0)
(-93.1799 121.662 0)
(-93.1842 121.663 0)
(-93.1971 121.665 0)
(-93.2179 121.67 0)
(-93.246 121.675 0)
(-93.2802 121.683 0)
(-93.3193 121.691 0)
(-93.3617 121.7 0)
(-94.3503 117.666 0)
(-94.4034 117.68 0)
(-94.4545 117.693 0)
(-94.5015 117.705 0)
(-94.5428 117.716 0)
(-94.5766 117.725 0)
(-94.6018 117.731 0)
(-94.6173 117.735 0)
(-94.6225 117.736 0)
(-94.6173 117.735 0)
(-94.6018 117.731 0)
(-94.5766 117.725 0)
(-94.5428 117.716 0)
(-94.5015 117.705 0)
(-94.4545 117.693 0)
(-94.4034 117.68 0)
(-94.3503 117.666 0)
(-94.2973 117.653 0)
(-94.2462 117.64 0)
(-94.1991 117.627 0)
(-94.1579 117.617 0)
(-94.1241 117.608 0)
(-94.0989 117.602 0)
(-94.0834 117.598 0)
(-94.0782 117.596 0)
(-94.0834 117.598 0)
(-94.0989 117.602 0)
(-94.1241 117.608 0)
(-94.1579 117.617 0)
(-94.1991 117.627 0)
(-94.2462 117.64 0)
(-94.2973 117.653 0)
(-95.6987 112.891 0)
(-95.7603 112.91 0)
(-95.8197 112.928 0)
(-95.8743 112.945 0)
(-95.9222 112.96 0)
(-95.9616 112.972 0)
(-95.9908 112.981 0)
(-96.0088 112.986 0)
(-96.0148 112.988 0)
(-96.0088 112.986 0)
(-95.9908 112.981 0)
(-95.9616 112.972 0)
(-95.9222 112.96 0)
(-95.8743 112.945 0)
(-95.8197 112.928 0)
(-95.7603 112.91 0)
(-95.6987 112.891 0)
(-95.637 112.872 0)
(-95.5777 112.854 0)
(-95.523 112.837 0)
(-95.4751 112.823 0)
(-95.4358 112.811 0)
(-95.4065 112.802 0)
(-95.3885 112.796 0)
(-95.3825 112.794 0)
(-95.3885 112.796 0)
(-95.4065 112.802 0)
(-95.4358 112.811 0)
(-95.4751 112.823 0)
(-95.523 112.837 0)
(-95.5777 112.854 0)
(-95.637 112.872 0)
(-97.516 107.423 0)
(-97.5858 107.448 0)
(-97.6529 107.472 0)
(-97.7147 107.494 0)
(-97.7689 107.513 0)
(-97.8133 107.529 0)
(-97.8464 107.541 0)
(-97.8667 107.548 0)
(-97.8736 107.55 0)
(-97.8667 107.548 0)
(-97.8464 107.541 0)
(-97.8133 107.529 0)
(-97.7689 107.513 0)
(-97.7147 107.494 0)
(-97.6529 107.472 0)
(-97.5858 107.448 0)
(-97.516 107.423 0)
(-97.4463 107.398 0)
(-97.3792 107.374 0)
(-97.3174 107.352 0)
(-97.2632 107.332 0)
(-97.2187 107.316 0)
(-97.1857 107.305 0)
(-97.1653 107.297 0)
(-97.1585 107.295 0)
(-97.1653 107.297 0)
(-97.1857 107.305 0)
(-97.2187 107.316 0)
(-97.2632 107.332 0)
(-97.3174 107.352 0)
(-97.3792 107.374 0)
(-97.4463 107.398 0)
(-99.8642 101.306 0)
(-99.9414 101.338 0)
(-100.016 101.368 0)
(-100.084 101.396 0)
(-100.144 101.421 0)
(-100.193 101.441 0)
(-100.23 101.456 0)
(-100.253 101.465 0)
(-100.26 101.468 0)
(-100.253 101.465 0)
(-100.23 101.456 0)
(-100.193 101.441 0)
(-100.144 101.421 0)
(-100.084 101.396 0)
(-100.016 101.368 0)
(-99.9414 101.338 0)
(-99.8642 101.306 0)
(-99.7869 101.274 0)
(-99.7127 101.244 0)
(-99.6442 101.216 0)
(-99.5842 101.191 0)
(-99.535 101.171 0)
(-99.4984 101.156 0)
(-99.4758 101.147 0)
(-99.4682 101.144 0)
(-99.4758 101.147 0)
(-99.4984 101.156 0)
(-99.535 101.171 0)
(-99.5842 101.191 0)
(-99.6442 101.216 0)
(-99.7127 101.244 0)
(-99.7869 101.274 0)
(-102.8 94.5938 0)
(-102.884 94.6329 0)
(-102.964 94.6704 0)
(-103.039 94.705 0)
(-103.104 94.7354 0)
(-103.158 94.7602 0)
(-103.198 94.7787 0)
(-103.222 94.7901 0)
(-103.231 94.794 0)
(-103.222 94.7901 0)
(-103.198 94.7787 0)
(-103.158 94.7602 0)
(-103.104 94.7354 0)
(-103.039 94.705 0)
(-102.964 94.6704 0)
(-102.884 94.6329 0)
(-102.8 94.5938 0)
(-102.715 94.5548 0)
(-102.635 94.5172 0)
(-102.56 94.4826 0)
(-102.495 94.4523 0)
(-102.441 94.4274 0)
(-102.401 94.4089 0)
(-102.377 94.3975 0)
(-102.368 94.3937 0)
(-102.377 94.3975 0)
(-102.401 94.4089 0)
(-102.441 94.4274 0)
(-102.495 94.4523 0)
(-102.56 94.4826 0)
(-102.635 94.5172 0)
(-102.715 94.5548 0)
(-106.374 87.3415 0)
(-106.465 87.3886 0)
(-106.551 87.4338 0)
(-106.631 87.4755 0)
(-106.701 87.512 0)
(-106.759 87.542 0)
(-106.802 87.5643 0)
(-106.828 87.578 0)
(-106.837 87.5826 0)
(-106.828 87.578 0)
(-106.802 87.5643 0)
(-106.759 87.542 0)
(-106.701 87.512 0)
(-106.631 87.4755 0)
(-106.551 87.4338 0)
(-106.465 87.3886 0)
(-106.374 87.3415 0)
(-106.284 87.2945 0)
(-106.197 87.2493 0)
(-106.117 87.2076 0)
(-106.047 87.1711 0)
(-105.99 87.1411 0)
(-105.947 87.1188 0)
(-105.921 87.1051 0)
(-105.912 87.1005 0)
(-105.921 87.1051 0)
(-105.947 87.1188 0)
(-105.99 87.1411 0)
(-106.047 87.1711 0)
(-106.117 87.2076 0)
(-106.197 87.2493 0)
(-106.284 87.2945 0)
(-110.636 79.609 0)
(-110.731 79.6646 0)
(-110.823 79.718 0)
(-110.908 79.7672 0)
(-110.982 79.8103 0)
(-111.043 79.8458 0)
(-111.089 79.8721 0)
(-111.116 79.8883 0)
(-111.126 79.8937 0)
(-111.116 79.8883 0)
(-111.089 79.8721 0)
(-111.043 79.8458 0)
(-110.982 79.8103 0)
(-110.908 79.7672 0)
(-110.823 79.718 0)
(-110.731 79.6646 0)
(-110.636 79.609 0)
(-110.54 79.5535 0)
(-110.448 79.5001 0)
(-110.364 79.4509 0)
(-110.289 79.4077 0)
(-110.228 79.3723 0)
(-110.183 79.346 0)
(-110.155 79.3298 0)
(-110.146 79.3243 0)
(-110.155 79.3298 0)
(-110.183 79.346 0)
(-110.228 79.3723 0)
(-110.289 79.4077 0)
(-110.364 79.4509 0)
(-110.448 79.5001 0)
(-110.54 79.5535 0)
(-115.624 71.4627 0)
(-115.724 71.5272 0)
(-115.82 71.5892 0)
(-115.909 71.6464 0)
(-115.987 71.6965 0)
(-116.051 71.7376 0)
(-116.098 71.7682 0)
(-116.128 71.787 0)
(-116.138 71.7934 0)
(-116.128 71.787 0)
(-116.098 71.7682 0)
(-116.051 71.7376 0)
(-115.987 71.6965 0)
(-115.909 71.6464 0)
(-115.82 71.5892 0)
(-115.724 71.5272 0)
(-115.624 71.4627 0)
(-115.524 71.3982 0)
(-115.427 71.3362 0)
(-115.339 71.279 0)
(-115.261 71.2289 0)
(-115.197 71.1878 0)
(-115.149 71.1572 0)
(-115.12 71.1384 0)
(-115.11 71.132 0)
(-115.12 71.1384 0)
(-115.149 71.1572 0)
(-115.197 71.1878 0)
(-115.261 71.2289 0)
(-115.339 71.279 0)
(-115.427 71.3362 0)
(-115.524 71.3982 0)
(-121.374 62.9699 0)
(-121.478 63.0438 0)
(-121.578 63.1148 0)
(-121.67 63.1802 0)
(-121.751 63.2376 0)
(-121.817 63.2847 0)
(-121.866 63.3197 0)
(-121.897 63.3412 0)
(-121.907 63.3485 0)
(-121.897 63.3412 0)
(-121.866 63.3197 0)
(-121.817 63.2847 0)
(-121.751 63.2376 0)
(-121.67 63.1802 0)
(-121.578 63.1148 0)
(-121.478 63.0438 0)
(-121.374 62.9699 0)
(-121.27 62.8961 0)
(-121.17 62.825 0)
(-121.078 62.7596 0)
(-120.997 62.7022 0)
(-120.931 62.6551 0)
(-120.882 62.6202 0)
(-120.851 62.5986 0)
(-120.841 62.5913 0)
(-120.851 62.5986 0)
(-120.882 62.6202 0)
(-120.931 62.6551 0)
(-120.997 62.7022 0)
(-121.078 62.7596 0)
(-121.17 62.825 0)
(-121.27 62.8961 0)
(-127.915 54.2008 0)
(-128.022 54.2843 0)
(-128.125 54.3646 0)
(-128.219 54.4386 0)
(-128.302 54.5035 0)
(-128.37 54.5567 0)
(-128.421 54.5963 0)
(-128.452 54.6206 0)
(-128.463 54.6288 0)
(-128.452 54.6206 0)
(-128.421 54.5963 0)
(-128.37 54.5567 0)
(-128.302 54.5035 0)
(-128.219 54.4386 0)
(-128.125 54.3646 0)
(-128.022 54.2843 0)
(-127.915 54.2008 0)
(-127.808 54.1173 0)
(-127.706 54.037 0)
(-127.611 53.963 0)
(-127.528 53.8981 0)
(-127.46 53.8449 0)
(-127.409 53.8053 0)
(-127.378 53.781 0)
(-127.368 53.7727 0)
(-127.378 53.781 0)
(-127.409 53.8053 0)
(-127.46 53.8449 0)
(-127.528 53.8981 0)
(-127.611 53.963 0)
(-127.706 54.037 0)
(-127.808 54.1173 0)
(-135.268 45.2306 0)
(-135.377 45.324 0)
(-135.481 45.4138 0)
(-135.578 45.4966 0)
(-135.662 45.5691 0)
(-135.732 45.6286 0)
(-135.783 45.6729 0)
(-135.815 45.7001 0)
(-135.826 45.7093 0)
(-135.815 45.7001 0)
(-135.783 45.6729 0)
(-135.732 45.6286 0)
(-135.662 45.5691 0)
(-135.578 45.4966 0)
(-135.481 45.4138 0)
(-135.377 45.324 0)
(-135.268 45.2306 0)
(-135.159 45.1373 0)
(-135.055 45.0475 0)
(-134.958 44.9647 0)
(-134.874 44.8922 0)
(-134.804 44.8326 0)
(-134.753 44.7884 0)
(-134.721 44.7612 0)
(-134.71 44.752 0)
(-134.721 44.7612 0)
(-134.753 44.7884 0)
(-134.804 44.8326 0)
(-134.874 44.8922 0)
(-134.958 44.9647 0)
(-135.055 45.0475 0)
(-135.159 45.1373 0)
(-143.448 36.1336 0)
(-143.558 36.237 0)
(-143.664 36.3364 0)
(-143.761 36.428 0)
(-143.846 36.5084 0)
(-143.916 36.5743 0)
(-143.968 36.6232 0)
(-144 36.6534 0)
(-144.011 36.6636 0)
(-144 36.6534 0)
(-143.968 36.6232 0)
(-143.916 36.5743 0)
(-143.846 36.5084 0)
(-143.761 36.428 0)
(-143.664 36.3364 0)
(-143.558 36.237 0)
(-143.448 36.1336 0)
(-143.338 36.0302 0)
(-143.233 35.9308 0)
(-143.135 35.8392 0)
(-143.05 35.7588 0)
(-142.98 35.6929 0)
(-142.928 35.644 0)
(-142.896 35.6138 0)
(-142.885 35.6036 0)
(-142.896 35.6138 0)
(-142.928 35.644 0)
(-142.98 35.6929 0)
(-143.05 35.7588 0)
(-143.135 35.8392 0)
(-143.233 35.9308 0)
(-143.338 36.0302 0)
(-152.465 26.9848 0)
(-152.575 27.0983 0)
(-152.681 27.2074 0)
(-152.778 27.3079 0)
(-152.864 27.3961 0)
(-152.934 27.4684 0)
(-152.986 27.5221 0)
(-153.018 27.5552 0)
(-153.029 27.5664 0)
(-153.018 27.5552 0)
(-152.986 27.5221 0)
(-152.934 27.4684 0)
(-152.864 27.3961 0)
(-152.778 27.3079 0)
(-152.681 27.2074 0)
(-152.575 27.0983 0)
(-152.465 26.9848 0)
(-152.355 26.8713 0)
(-152.249 26.7622 0)
(-152.152 26.6617 0)
(-152.066 26.5736 0)
(-151.996 26.5012 0)
(-151.944 26.4475 0)
(-151.912 26.4144 0)
(-151.901 26.4032 0)
(-151.912 26.4144 0)
(-151.944 26.4475 0)
(-151.996 26.5012 0)
(-152.066 26.5736 0)
(-152.152 26.6617 0)
(-152.249 26.7622 0)
(-152.355 26.8713 0)
(-162.317 17.8628 0)
(-162.426 17.9863 0)
(-162.531 18.1051 0)
(-162.628 18.2146 0)
(-162.713 18.3105 0)
(-162.783 18.3892 0)
(-162.834 18.4477 0)
(-162.866 18.4837 0)
(-162.877 18.4959 0)
(-162.866 18.4837 0)
(-162.834 18.4477 0)
(-162.783 18.3892 0)
(-162.713 18.3105 0)
(-162.628 18.2146 0)
(-162.531 18.1051 0)
(-162.426 17.9863 0)
(-162.317 17.8628 0)
(-162.208 17.7393 0)
(-162.103 17.6206 0)
(-162.006 17.5111 0)
(-161.921 17.4152 0)
(-161.852 17.3365 0)
(-161.8 17.278 0)
(-161.768 17.2419 0)
(-161.757 17.2298 0)
(-161.768 17.2419 0)
(-161.8 17.278 0)
(-161.852 17.3365 0)
(-161.921 17.4152 0)
(-162.006 17.5111 0)
(-162.103 17.6206 0)
(-162.208 17.7393 0)
(-173 8.84306 0)
(-173.108 8.97649 0)
(-173.211 9.1048 0)
(-173.307 9.22305 0)
(-173.39 9.32669 0)
(-173.459 9.41175 0)
(-173.51 9.47495 0)
(-173.541 9.51387 0)
(-173.552 9.52701 0)
(-173.541 9.51387 0)
(-173.51 9.47495 0)
(-173.459 9.41175 0)
(-173.39 9.32669 0)
(-173.307 9.22305 0)
(-173.211 9.1048 0)
(-173.108 8.97649 0)
(-173 8.84306 0)
(-172.893 8.70963 0)
(-172.789 8.58132 0)
(-172.694 8.46308 0)
(-172.61 8.35943 0)
(-172.542 8.27438 0)
(-172.491 8.21117 0)
(-172.459 8.17225 0)
(-172.449 8.15911 0)
(-172.459 8.17225 0)
(-172.491 8.21117 0)
(-172.542 8.27438 0)
(-172.61 8.35943 0)
(-172.694 8.46308 0)
(-172.789 8.58132 0)
(-172.893 8.70963 0)
(-184.503 -4.0836e-14 0)
(-184.607 0.143166 0)
(-184.708 0.28083 0)
(-184.801 0.407702 0)
(-184.883 0.518906 0)
(-184.95 0.610169 0)
(-185 0.677984 0)
(-185.03 0.719744 0)
(-185.041 0.733845 0)
(-185.03 0.719744 0)
(-185 0.677984 0)
(-184.95 0.610169 0)
(-184.883 0.518906 0)
(-184.801 0.407702 0)
(-184.708 0.28083 0)
(-184.607 0.143166 0)
(-184.503 -4.07462e-14 0)
(-184.398 -0.143166 0)
(-184.297 -0.28083 0)
(-184.204 -0.407702 0)
(-184.122 -0.518906 0)
(-184.055 -0.610169 0)
(-184.005 -0.677984 0)
(-183.975 -0.719744 0)
(-183.964 -0.733845 0)
(-183.975 -0.719744 0)
(-184.005 -0.677984 0)
(-184.055 -0.610169 0)
(-184.122 -0.518906 0)
(-184.204 -0.407702 0)
(-184.297 -0.28083 0)
(-184.398 -0.143166 0)
)
;

boundaryField
{
    left
    {
        type            calculated;
    }
    right
    {
        type            calculated;
    }
    beam
    {
        type            empty;
    }
}


// ************************************************************************* //
