/*--------------------------------*- C++ -*----------------------------------*\
| =========                 |                                                 |
| \\      /  F ield         | foam-extend: Open Source CFD                    |
|  \\    /   O peration     | Version:     4.1                                |
|   \\  /    A nd           | Web:         http://www.foam-extend.org         |
|    \\/     M anipulation  |                                                 |
\*---------------------------------------------------------------------------*/
FoamFile
{
    version     2.0;
    format      ascii;
    class       surfaceTensorField;
    location    "0";
    object      refLambda;
}
// * * * * * * * * * * * * * * * * * * * * * * * * * * * * * * * * * * * * * //

dimensions      [0 0 0 0 0 0 0];

internalField   nonuniform List<tensor> 
40
(
(-0.212282 -0.977209 0 0.977209 -0.212282 0 0 0 1)
(-0.12208 -0.99252 0 0.99252 -0.12208 0 0 0 1)
(-0.0308579 -0.999524 0 0.999524 -0.0308579 0 0 0 1)
(0.060623 -0.998161 0 0.998161 0.060623 0 0 0 1)
(0.151597 -0.988442 0 0.988442 0.151597 0 0 0 1)
(0.241302 -0.97045 0 0.97045 0.241302 0 0 0 1)
(0.328987 -0.944334 0 0.944334 0.328987 0 0 0 1)
(0.413918 -0.910314 0 0.910314 0.413918 0 0 0 1)
(0.495384 -0.868674 0 0.868674 0.495384 0 0 0 1)
(0.572704 -0.819762 0 0.819762 0.572704 0 0 0 1)
(0.645232 -0.763987 0 0.763987 0.645232 0 0 0 1)
(0.712354 -0.70182 0 0.70182 0.712354 0 0 0 1)
(0.773514 -0.633779 0 0.633779 0.773514 0 0 0 1)
(0.828205 -0.560426 0 0.560426 0.828205 0 0 0 1)
(0.875957 -0.482389 0 0.482389 0.875957 0 0 0 1)
(0.916378 -0.400314 0 0.400314 0.916378 0 0 0 1)
(0.949132 -0.31488 0 0.31488 0.949132 0 0 0 1)
(0.973937 -0.226819 0 0.226819 0.973937 0 0 0 1)
(0.990591 -0.136859 0 0.136859 0.990591 0 0 0 1)
(0.998953 -0.045744 0 0.045744 0.998953 0 0 0 1)
(0.998953 0.045744 0 -0.045744 0.998953 0 0 0 1)
(0.990592 0.136849 0 -0.136849 0.990592 0 0 0 1)
(0.973937 0.226819 0 -0.226819 0.973937 0 0 0 1)
(0.949132 0.31488 0 -0.31488 0.949132 0 0 0 1)
(0.916382 0.400305 0 -0.400305 0.916382 0 0 0 1)
(0.875957 0.482389 0 -0.482389 0.875957 0 0 0 1)
(0.828205 0.560426 0 -0.560426 0.828205 0 0 0 1)
(0.77352 0.633772 0 -0.633772 0.77352 0 0 0 1)
(0.712354 0.70182 0 -0.70182 0.712354 0 0 0 1)
(0.645232 0.763987 0 -0.763987 0.645232 0 0 0 1)
(0.572709 0.819759 0 -0.819759 0.572709 0 0 0 1)
(0.495384 0.868674 0 -0.868674 0.495384 0 0 0 1)
(0.413921 0.910313 0 -0.910313 0.413921 0 0 0 1)
(0.328993 0.944332 0 -0.944332 0.328993 0 0 0 1)
(0.241302 0.97045 0 -0.97045 0.241302 0 0 0 1)
(0.1516 0.988442 0 -0.988442 0.1516 0 0 0 1)
(0.06063 0.99816 0 -0.99816 0.06063 0 0 0 1)
(-0.0308579 0.999524 0 -0.999524 -0.0308579 0 0 0 1)
(-0.122077 0.992521 0 -0.992521 -0.122077 0 0 0 1)
(-0.212275 0.97721 0 -0.97721 -0.212275 0 0 0 1)
)
;

boundaryField
{
    left
    {
        type            calculated;
        value           uniform (-0.300706 -0.953717 0 0.953717 -0.300706 0 0 0 1);
    }
    right
    {
        type            calculated;
        value           uniform (-0.300706 0.953717 0 -0.953717 -0.300706 0 0 0 1);
    }
    beam
    {
        type            empty;
    }
}


// ************************************************************************* //
