/*--------------------------------*- C++ -*----------------------------------*\
| =========                 |                                                 |
| \\      /  F ield         | foam-extend: Open Source CFD                    |
|  \\    /   O peration     | Version:     4.1                                |
|   \\  /    A nd           | Web:         http://www.foam-extend.org         |
|    \\/     M anipulation  |                                                 |
\*---------------------------------------------------------------------------*/
FoamFile
{
    version     2.0;
    format      ascii;
    class       volTensorField;
    location    "0";
    object      refRM;
}
// * * * * * * * * * * * * * * * * * * * * * * * * * * * * * * * * * * * * * //

dimensions      [0 0 0 0 0 0 0];

internalField   nonuniform List<tensor> 10((0.996917 0.0784591 0 -0.0784591 0.996917 0 0 0 1) (0.97237 0.233445 0 -0.233445 0.97237 0 0 0 1) (0.92388 0.382683 0 -0.382683 0.92388 0 0 0 1) (0.852641 0.522498 0 -0.522498 0.852641 0 0 0 1) (0.760407 0.649447 0 -0.649447 0.760407 0 0 0 1) (0.64945 0.760405 0 -0.760405 0.64945 0 0 0 1) (0.522499 0.85264 0 -0.85264 0.522499 0 0 0 1) (0.382683 0.92388 0 -0.92388 0.382683 0 0 0 1) (0.233445 0.97237 0 -0.97237 0.233445 0 0 0 1) (0.0784591 0.996917 0 -0.996917 0.0784591 0 0 0 1));

boundaryField
{
    left
    {
        type            calculated;
        value           uniform (1 8.83946e-36 0 -8.83946e-36 1 0 0 0 1);
    }
    right
    {
        type            calculated;
        value           uniform (5.05322e-16 1 0 -1 5.05322e-16 0 0 0 1);
    }
    beam
    {
        type            empty;
    }
}


// ************************************************************************* //
