/*--------------------------------*- C++ -*----------------------------------*\
| =========                 |                                                 |
| \\      /  F ield         | foam-extend: Open Source CFD                    |
|  \\    /   O peration     | Version:     4.1                                |
|   \\  /    A nd           | Web:         http://www.foam-extend.org         |
|    \\/     M anipulation  |                                                 |
\*---------------------------------------------------------------------------*/
FoamFile
{
    version     2.0;
    format      ascii;
    class       surfaceVectorField;
    location    "0";
    object      refWf;
}
// * * * * * * * * * * * * * * * * * * * * * * * * * * * * * * * * * * * * * //

dimensions      [0 1 0 0 0 0 0];

internalField   nonuniform List<vector> 9((-0.0645169 -1.23117 0) (-0.514223 -4.89433 0) (-1.72483 -10.8993 0) (-4.05332 -19.0983 0) (-7.8291 -29.2892 0) (-13.346 -41.2214 0) (-20.8551 -54.6011 0) (-30.5581 -69.0985 0) (-42.6029 -84.3568 0));

boundaryField
{
    left
    {
        type            calculated;
        value           uniform (0 0 0);
    }
    right
    {
        type            calculated;
        value           uniform (-57.0798 -100 0);
    }
    beam
    {
        type            empty;
    }
}


// ************************************************************************* //
