/*--------------------------------*- C++ -*----------------------------------*\
| =========                 |                                                 |
| \\      /  F ield         | foam-extend: Open Source CFD                    |
|  \\    /   O peration     | Version:     4.1                                |
|   \\  /    A nd           | Web:         http://www.foam-extend.org         |
|    \\/     M anipulation  |                                                 |
\*---------------------------------------------------------------------------*/
FoamFile
{
    version     2.0;
    format      ascii;
    class       surfaceTensorField;
    location    "0";
    object      refLambda;
}
// * * * * * * * * * * * * * * * * * * * * * * * * * * * * * * * * * * * * * //

dimensions      [0 0 0 0 0 0 0];

internalField   nonuniform List<tensor> 
38
(
(1 0 0 0 1 0 0 0 1)
(1 0 0 0 1 0 0 0 1)
(1 0 0 0 1 0 0 0 1)
(1 0 0 0 1 0 0 0 1)
(1 0 0 0 1 0 0 0 1)
(1 0 0 0 1 0 0 0 1)
(1 0 0 0 1 0 0 0 1)
(1 0 0 0 1 0 0 0 1)
(1 0 0 0 1 0 0 0 1)
(1 0 0 0 1 0 0 0 1)
(1 0 0 0 1 0 0 0 1)
(1 0 0 0 1 0 0 0 1)
(1 0 0 0 1 0 0 0 1)
(1 0 0 0 1 0 0 0 1)
(1 0 0 0 1 0 0 0 1)
(1 0 0 0 1 0 0 0 1)
(1 0 0 0 1 0 0 0 1)
(1 0 0 0 1 0 0 0 1)
(1 0 0 0 1 0 0 0 1)
(6.12323e-17 0 1 0 1 0 -1 0 6.12323e-17)
(6.12323e-17 0 1 0 1 0 -1 0 6.12323e-17)
(6.12323e-17 0 1 0 1 0 -1 0 6.12323e-17)
(6.12323e-17 0 1 0 1 0 -1 0 6.12323e-17)
(6.12323e-17 0 1 0 1 0 -1 0 6.12323e-17)
(6.12323e-17 0 1 0 1 0 -1 0 6.12323e-17)
(6.12323e-17 0 1 0 1 0 -1 0 6.12323e-17)
(6.12323e-17 0 1 0 1 0 -1 0 6.12323e-17)
(6.12323e-17 0 1 0 1 0 -1 0 6.12323e-17)
(6.12323e-17 0 1 0 1 0 -1 0 6.12323e-17)
(6.12323e-17 0 1 0 1 0 -1 0 6.12323e-17)
(6.12323e-17 0 1 0 1 0 -1 0 6.12323e-17)
(6.12323e-17 0 1 0 1 0 -1 0 6.12323e-17)
(6.12323e-17 0 1 0 1 0 -1 0 6.12323e-17)
(6.12323e-17 0 1 0 1 0 -1 0 6.12323e-17)
(6.12323e-17 0 1 0 1 0 -1 0 6.12323e-17)
(6.12323e-17 0 1 0 1 0 -1 0 6.12323e-17)
(6.12323e-17 0 1 0 1 0 -1 0 6.12323e-17)
(6.12323e-17 0 1 0 1 0 -1 0 6.12323e-17)
)
;

boundaryField
{
    left_0
    {
        type            calculated;
        value           uniform (1 0 0 0 1 0 0 0 1);
    }
    left_1
    {
        type            calculated;
        value           uniform (6.12323e-17 0 1 0 1 0 -1 0 6.12323e-17);
    }
    right_0
    {
        type            calculated;
        value           uniform (1 0 0 0 1 0 0 0 1);
    }
    right_1
    {
        type            calculated;
        value           uniform (6.12323e-17 0 1 0 1 0 -1 0 6.12323e-17);
    }
    beam
    {
        type            empty;
    }
}


// ************************************************************************* //
