/*--------------------------------*- C++ -*----------------------------------*\
| =========                 |                                                 |
| \\      /  F ield         | foam-extend: Open Source CFD                    |
|  \\    /   O peration     | Version:     4.1                                |
|   \\  /    A nd           | Web:         http://www.foam-extend.org         |
|    \\/     M anipulation  |                                                 |
\*---------------------------------------------------------------------------*/
FoamFile
{
    version     2.0;
    format      ascii;
    class       pointVectorField;
    location    "0";
    object      pointW;
}
// * * * * * * * * * * * * * * * * * * * * * * * * * * * * * * * * * * * * * //

dimensions      [0 1 0 0 0 0 0];

internalField   nonuniform List<vector> 
1344
(
(0 0 0)
(0 0 0)
(0 0 0)
(0 0 0)
(0 0 0)
(0 0 0)
(0 0 0)
(0 0 0)
(0 0 0)
(0 0 0)
(0 0 0)
(0 0 0)
(0 0 0)
(0 0 0)
(0 0 0)
(0 0 0)
(0 0 0)
(0 0 0)
(0 0 0)
(0 0 0)
(0 0 0)
(0 0 0)
(0 0 0)
(0 0 0)
(0 0 0)
(0 0 0)
(0 0 0)
(0 0 0)
(0 0 0)
(0 0 0)
(0 0 0)
(0 0 0)
(0 0 0)
(0 0 0)
(0 0 0)
(0 0 0)
(0 0 0)
(0 0 0)
(0 0 0)
(0 0 0)
(0 0 0)
(0 0 0)
(0 0 0)
(0 0 0)
(0 0 0)
(0 0 0)
(0 0 0)
(0 0 0)
(0 0 0)
(0 0 0)
(0 0 0)
(0 0 0)
(0 0 0)
(0 0 0)
(0 0 0)
(0 0 0)
(0 0 0)
(0 0 0)
(0 0 0)
(0 0 0)
(0 0 0)
(0 0 0)
(0 0 0)
(0 0 0)
(0 0 0)
(0 0 0)
(0 0 0)
(0 0 0)
(0 0 0)
(0 0 0)
(0 0 0)
(0 0 0)
(0 0 0)
(0 0 0)
(0 0 0)
(0 0 0)
(0 0 0)
(0 0 0)
(0 0 0)
(0 0 0)
(0 0 0)
(0 0 0)
(0 0 0)
(0 0 0)
(0 0 0)
(0 0 0)
(0 0 0)
(0 0 0)
(0 0 0)
(0 0 0)
(0 0 0)
(0 0 0)
(0 0 0)
(0 0 0)
(0 0 0)
(0 0 0)
(0 0 0)
(0 0 0)
(0 0 0)
(0 0 0)
(0 0 0)
(0 0 0)
(0 0 0)
(0 0 0)
(0 0 0)
(0 0 0)
(0 0 0)
(0 0 0)
(0 0 0)
(0 0 0)
(0 0 0)
(0 0 0)
(0 0 0)
(0 0 0)
(0 0 0)
(0 0 0)
(0 0 0)
(0 0 0)
(0 0 0)
(0 0 0)
(0 0 0)
(0 0 0)
(0 0 0)
(0 0 0)
(0 0 0)
(0 0 0)
(0 0 0)
(0 0 0)
(0 0 0)
(0 0 0)
(0 0 0)
(0 0 0)
(0 0 0)
(0 0 0)
(0 0 0)
(0 0 0)
(0 0 0)
(0 0 0)
(0 0 0)
(0 0 0)
(0 0 0)
(0 0 0)
(0 0 0)
(0 0 0)
(0 0 0)
(0 0 0)
(0 0 0)
(0 0 0)
(0 0 0)
(0 0 0)
(0 0 0)
(0 0 0)
(0 0 0)
(0 0 0)
(0 0 0)
(0 0 0)
(0 0 0)
(0 0 0)
(0 0 0)
(0 0 0)
(0 0 0)
(0 0 0)
(0 0 0)
(0 0 0)
(0 0 0)
(0 0 0)
(0 0 0)
(0 0 0)
(0 0 0)
(0 0 0)
(0 0 0)
(0 0 0)
(0 0 0)
(0 0 0)
(0 0 0)
(0 0 0)
(0 0 0)
(0 0 0)
(0 0 0)
(0 0 0)
(0 0 0)
(0 0 0)
(0 0 0)
(0 0 0)
(0 0 0)
(0 0 0)
(0 0 0)
(0 0 0)
(0 0 0)
(0 0 0)
(0 0 0)
(0 0 0)
(0 0 0)
(0 0 0)
(0 0 0)
(0 0 0)
(0 0 0)
(0 0 0)
(0 0 0)
(0 0 0)
(0 0 0)
(0 0 0)
(0 0 0)
(0 0 0)
(0 0 0)
(0 0 0)
(0 0 0)
(0 0 0)
(0 0 0)
(0 0 0)
(0 0 0)
(0 0 0)
(0 0 0)
(0 0 0)
(0 0 0)
(0 0 0)
(0 0 0)
(0 0 0)
(0 0 0)
(0 0 0)
(0 0 0)
(0 0 0)
(0 0 0)
(0 0 0)
(0 0 0)
(0 0 0)
(0 0 0)
(0 0 0)
(0 0 0)
(0 0 0)
(0 0 0)
(0 0 0)
(0 0 0)
(0 0 0)
(0 0 0)
(0 0 0)
(0 0 0)
(0 0 0)
(0 0 0)
(0 0 0)
(0 0 0)
(0 0 0)
(0 0 0)
(0 0 0)
(0 0 0)
(0 0 0)
(0 0 0)
(0 0 0)
(0 0 0)
(0 0 0)
(0 0 0)
(0 0 0)
(0 0 0)
(0 0 0)
(0 0 0)
(0 0 0)
(0 0 0)
(0 0 0)
(0 0 0)
(0 0 0)
(0 0 0)
(0 0 0)
(0 0 0)
(0 0 0)
(0 0 0)
(0 0 0)
(0 0 0)
(0 0 0)
(0 0 0)
(0 0 0)
(0 0 0)
(0 0 0)
(0 0 0)
(0 0 0)
(0 0 0)
(0 0 0)
(0 0 0)
(0 0 0)
(0 0 0)
(0 0 0)
(0 0 0)
(0 0 0)
(0 0 0)
(0 0 0)
(0 0 0)
(0 0 0)
(0 0 0)
(0 0 0)
(0 0 0)
(0 0 0)
(0 0 0)
(0 0 0)
(0 0 0)
(0 0 0)
(0 0 0)
(0 0 0)
(0 0 0)
(0 0 0)
(0 0 0)
(0 0 0)
(0 0 0)
(0 0 0)
(0 0 0)
(0 0 0)
(0 0 0)
(0 0 0)
(0 0 0)
(0 0 0)
(0 0 0)
(0 0 0)
(0 0 0)
(0 0 0)
(0 0 0)
(0 0 0)
(0 0 0)
(0 0 0)
(0 0 0)
(0 0 0)
(0 0 0)
(0 0 0)
(0 0 0)
(0 0 0)
(0 0 0)
(0 0 0)
(0 0 0)
(0 0 0)
(0 0 0)
(0 0 0)
(0 0 0)
(0 0 0)
(0 0 0)
(0 0 0)
(0 0 0)
(0 0 0)
(0 0 0)
(0 0 0)
(0 0 0)
(0 0 0)
(0 0 0)
(0 0 0)
(0 0 0)
(0 0 0)
(0 0 0)
(0 0 0)
(0 0 0)
(0 0 0)
(0 0 0)
(0 0 0)
(0 0 0)
(0 0 0)
(0 0 0)
(0 0 0)
(0 0 0)
(0 0 0)
(0 0 0)
(0 0 0)
(0 0 0)
(0 0 0)
(0 0 0)
(0 0 0)
(0 0 0)
(0 0 0)
(0 0 0)
(0 0 0)
(0 0 0)
(0 0 0)
(0 0 0)
(0 0 0)
(0 0 0)
(0 0 0)
(0 0 0)
(0 0 0)
(0 0 0)
(0 0 0)
(0 0 0)
(0 0 0)
(0 0 0)
(0 0 0)
(0 0 0)
(0 0 0)
(0 0 0)
(0 0 0)
(0 0 0)
(0 0 0)
(0 0 0)
(0 0 0)
(0 0 0)
(0 0 0)
(0 0 0)
(0 0 0)
(0 0 0)
(0 0 0)
(0 0 0)
(0 0 0)
(0 0 0)
(0 0 0)
(0 0 0)
(0 0 0)
(0 0 0)
(0 0 0)
(0 0 0)
(0 0 0)
(0 0 0)
(0 0 0)
(0 0 0)
(0 0 0)
(0 0 0)
(0 0 0)
(0 0 0)
(0 0 0)
(0 0 0)
(0 0 0)
(0 0 0)
(0 0 0)
(0 0 0)
(0 0 0)
(0 0 0)
(0 0 0)
(0 0 0)
(0 0 0)
(0 0 0)
(0 0 0)
(0 0 0)
(0 0 0)
(0 0 0)
(0 0 0)
(0 0 0)
(0 0 0)
(0 0 0)
(0 0 0)
(0 0 0)
(0 0 0)
(0 0 0)
(0 0 0)
(0 0 0)
(0 0 0)
(0 0 0)
(0 0 0)
(0 0 0)
(0 0 0)
(0 0 0)
(0 0 0)
(0 0 0)
(0 0 0)
(0 0 0)
(0 0 0)
(0 0 0)
(0 0 0)
(0 0 0)
(0 0 0)
(0 0 0)
(0 0 0)
(0 0 0)
(0 0 0)
(0 0 0)
(0 0 0)
(0 0 0)
(0 0 0)
(0 0 0)
(0 0 0)
(0 0 0)
(0 0 0)
(0 0 0)
(0 0 0)
(0 0 0)
(0 0 0)
(0 0 0)
(0 0 0)
(0 0 0)
(0 0 0)
(0 0 0)
(0 0 0)
(0 0 0)
(0 0 0)
(0 0 0)
(0 0 0)
(0 0 0)
(0 0 0)
(0 0 0)
(0 0 0)
(0 0 0)
(0 0 0)
(0 0 0)
(0 0 0)
(0 0 0)
(0 0 0)
(0 0 0)
(0 0 0)
(0 0 0)
(0 0 0)
(0 0 0)
(0 0 0)
(0 0 0)
(0 0 0)
(0 0 0)
(0 0 0)
(0 0 0)
(0 0 0)
(0 0 0)
(0 0 0)
(0 0 0)
(0 0 0)
(0 0 0)
(0 0 0)
(0 0 0)
(0 0 0)
(0 0 0)
(0 0 0)
(0 0 0)
(0 0 0)
(0 0 0)
(0 0 0)
(0 0 0)
(0 0 0)
(0 0 0)
(0 0 0)
(0 0 0)
(0 0 0)
(0 0 0)
(0 0 0)
(0 0 0)
(0 0 0)
(0 0 0)
(0 0 0)
(0 0 0)
(0 0 0)
(0 0 0)
(0 0 0)
(0 0 0)
(0 0 0)
(0 0 0)
(0 0 0)
(0 0 0)
(0 0 0)
(0 0 0)
(0 0 0)
(0 0 0)
(0 0 0)
(0 0 0)
(0 0 0)
(0 0 0)
(0 0 0)
(0 0 0)
(0 0 0)
(0 0 0)
(0 0 0)
(0 0 0)
(0 0 0)
(0 0 0)
(0 0 0)
(0 0 0)
(0 0 0)
(0 0 0)
(0 0 0)
(0 0 0)
(0 0 0)
(0 0 0)
(0 0 0)
(0 0 0)
(0 0 0)
(0 0 0)
(0 0 0)
(0 0 0)
(0 0 0)
(0 0 0)
(0 0 0)
(0 0 0)
(0 0 0)
(0 0 0)
(0 0 0)
(0 0 0)
(0 0 0)
(0 0 0)
(0 0 0)
(0 0 0)
(0 0 0)
(0 0 0)
(0 0 0)
(0 0 0)
(0 0 0)
(0 0 0)
(0 0 0)
(0 0 0)
(0 0 0)
(0 0 0)
(0 0 0)
(0 0 0)
(0 0 0)
(0 0 0)
(0 0 0)
(0 0 0)
(0 0 0)
(0 9.62965e-35 0)
(0 0 0)
(0 0 0)
(0 0 0)
(0 0 0)
(0 0 0)
(0 0 0)
(0 0 0)
(0 0 0)
(0 0 0)
(0 0 0)
(0 0 0)
(0 0 0)
(0 0 0)
(0 0 0)
(0 0 0)
(0 0 0)
(0 0 0)
(0 0 0)
(0 0 0)
(0 0 0)
(0 0 0)
(0 0 0)
(0 0 0)
(0 0 0)
(0 0 0)
(0 0 0)
(0 0 0)
(0 0 0)
(0 0 0)
(0 0 0)
(0 0 0)
(0 0 0)
(0 0 0)
(0 0 0)
(0 0 0)
(0 0 0)
(0 0 0)
(0 0 0)
(0 0 0)
(0 0 0)
(0 0 0)
(0 0 0)
(0 0 0)
(0 0 0)
(0 0 0)
(0 0 0)
(0 0 0)
(0 0 0)
(0 0 0)
(0 0 0)
(0 0 0)
(0 0 0)
(0 0 0)
(0 0 0)
(0 0 0)
(0 0 0)
(0 0 0)
(0 0 0)
(0 0 0)
(0 0 0)
(0 0 0)
(0 0 0)
(0 0 0)
(0 0 0)
(0 0 0)
(0 0 0)
(0 0 0)
(0 0 0)
(0 0 0)
(0 0 0)
(0 0 0)
(0 0 0)
(0 0 0)
(0 0 0)
(0 0 0)
(0 0 0)
(0 0 0)
(0 0 0)
(0 0 0)
(0.3615 0.01 0.4125)
(0.361596 0.01 0.412404)
(0.361881 0.01 0.412119)
(0.362343 0.01 0.411657)
(0.362964 0.01 0.411036)
(0.363722 0.01 0.410278)
(0.364587 0.01 0.409413)
(0.365525 0.01 0.408475)
(0.3665 0.01 0.4075)
(0.367475 0.01 0.406525)
(0.368413 0.01 0.405587)
(0.369278 0.01 0.404722)
(0.370036 0.01 0.403964)
(0.370657 0.01 0.403343)
(0.371119 0.01 0.402881)
(0.371404 0.01 0.402596)
(0.3715 0.01 0.4025)
(0.371404 0.01 0.402596)
(0.371119 0.01 0.402881)
(0.370657 0.01 0.403343)
(0.370036 0.01 0.403964)
(0.369278 0.01 0.404722)
(0.368413 0.01 0.405587)
(0.367475 0.01 0.406525)
(0.3665 0.01 0.4075)
(0.365525 0.01 0.408475)
(0.364587 0.01 0.409413)
(0.363722 0.01 0.410278)
(0.362964 0.01 0.411036)
(0.362343 0.01 0.411657)
(0.361881 0.01 0.412119)
(0.361596 0.01 0.412404)
(0.3365 0.01 0.3875)
(0.336596 0.01 0.387404)
(0.336881 0.01 0.387119)
(0.337343 0.01 0.386657)
(0.337964 0.01 0.386036)
(0.338722 0.01 0.385278)
(0.339587 0.01 0.384413)
(0.340525 0.01 0.383475)
(0.3415 0.01 0.3825)
(0.342475 0.01 0.381525)
(0.343413 0.01 0.380587)
(0.344278 0.01 0.379722)
(0.345036 0.01 0.378964)
(0.345657 0.01 0.378343)
(0.346119 0.01 0.377881)
(0.346404 0.01 0.377596)
(0.3465 0.01 0.3775)
(0.346404 0.01 0.377596)
(0.346119 0.01 0.377881)
(0.345657 0.01 0.378343)
(0.345036 0.01 0.378964)
(0.344278 0.01 0.379722)
(0.343413 0.01 0.380587)
(0.342475 0.01 0.381525)
(0.3415 0.01 0.3825)
(0.340525 0.01 0.383475)
(0.339587 0.01 0.384413)
(0.338722 0.01 0.385278)
(0.337964 0.01 0.386036)
(0.337343 0.01 0.386657)
(0.336881 0.01 0.387119)
(0.336596 0.01 0.387404)
(0.3115 0.01 0.3625)
(0.311596 0.01 0.362404)
(0.311881 0.01 0.362119)
(0.312343 0.01 0.361657)
(0.312964 0.01 0.361036)
(0.313722 0.01 0.360278)
(0.314587 0.01 0.359413)
(0.315525 0.01 0.358475)
(0.3165 0.01 0.3575)
(0.317475 0.01 0.356525)
(0.318413 0.01 0.355587)
(0.319278 0.01 0.354722)
(0.320036 0.01 0.353964)
(0.320657 0.01 0.353343)
(0.321119 0.01 0.352881)
(0.321404 0.01 0.352596)
(0.3215 0.01 0.3525)
(0.321404 0.01 0.352596)
(0.321119 0.01 0.352881)
(0.320657 0.01 0.353343)
(0.320036 0.01 0.353964)
(0.319278 0.01 0.354722)
(0.318413 0.01 0.355587)
(0.317475 0.01 0.356525)
(0.3165 0.01 0.3575)
(0.315525 0.01 0.358475)
(0.314587 0.01 0.359413)
(0.313722 0.01 0.360278)
(0.312964 0.01 0.361036)
(0.312343 0.01 0.361657)
(0.311881 0.01 0.362119)
(0.311596 0.01 0.362404)
(0.2865 0.01 0.3375)
(0.286596 0.01 0.337404)
(0.286881 0.01 0.337119)
(0.287343 0.01 0.336657)
(0.287964 0.01 0.336036)
(0.288722 0.01 0.335278)
(0.289587 0.01 0.334413)
(0.290525 0.01 0.333475)
(0.2915 0.01 0.3325)
(0.292475 0.01 0.331525)
(0.293413 0.01 0.330587)
(0.294278 0.01 0.329722)
(0.295036 0.01 0.328964)
(0.295657 0.01 0.328343)
(0.296119 0.01 0.327881)
(0.296404 0.01 0.327596)
(0.2965 0.01 0.3275)
(0.296404 0.01 0.327596)
(0.296119 0.01 0.327881)
(0.295657 0.01 0.328343)
(0.295036 0.01 0.328964)
(0.294278 0.01 0.329722)
(0.293413 0.01 0.330587)
(0.292475 0.01 0.331525)
(0.2915 0.01 0.3325)
(0.290525 0.01 0.333475)
(0.289587 0.01 0.334413)
(0.288722 0.01 0.335278)
(0.287964 0.01 0.336036)
(0.287343 0.01 0.336657)
(0.286881 0.01 0.337119)
(0.286596 0.01 0.337404)
(0.2615 0.01 0.3125)
(0.261596 0.01 0.312404)
(0.261881 0.01 0.312119)
(0.262343 0.01 0.311657)
(0.262964 0.01 0.311036)
(0.263722 0.01 0.310278)
(0.264587 0.01 0.309413)
(0.265525 0.01 0.308475)
(0.2665 0.01 0.3075)
(0.267475 0.01 0.306525)
(0.268413 0.01 0.305587)
(0.269278 0.01 0.304722)
(0.270036 0.01 0.303964)
(0.270657 0.01 0.303343)
(0.271119 0.01 0.302881)
(0.271404 0.01 0.302596)
(0.2715 0.01 0.3025)
(0.271404 0.01 0.302596)
(0.271119 0.01 0.302881)
(0.270657 0.01 0.303343)
(0.270036 0.01 0.303964)
(0.269278 0.01 0.304722)
(0.268413 0.01 0.305587)
(0.267475 0.01 0.306525)
(0.2665 0.01 0.3075)
(0.265525 0.01 0.308475)
(0.264587 0.01 0.309413)
(0.263722 0.01 0.310278)
(0.262964 0.01 0.311036)
(0.262343 0.01 0.311657)
(0.261881 0.01 0.312119)
(0.261596 0.01 0.312404)
(0.2365 0.01 0.2875)
(0.236596 0.01 0.287404)
(0.236881 0.01 0.287119)
(0.237343 0.01 0.286657)
(0.237964 0.01 0.286036)
(0.238722 0.01 0.285278)
(0.239587 0.01 0.284413)
(0.240525 0.01 0.283475)
(0.2415 0.01 0.2825)
(0.242475 0.01 0.281525)
(0.243413 0.01 0.280587)
(0.244278 0.01 0.279722)
(0.245036 0.01 0.278964)
(0.245657 0.01 0.278343)
(0.246119 0.01 0.277881)
(0.246404 0.01 0.277596)
(0.2465 0.01 0.2775)
(0.246404 0.01 0.277596)
(0.246119 0.01 0.277881)
(0.245657 0.01 0.278343)
(0.245036 0.01 0.278964)
(0.244278 0.01 0.279722)
(0.243413 0.01 0.280587)
(0.242475 0.01 0.281525)
(0.2415 0.01 0.2825)
(0.240525 0.01 0.283475)
(0.239587 0.01 0.284413)
(0.238722 0.01 0.285278)
(0.237964 0.01 0.286036)
(0.237343 0.01 0.286657)
(0.236881 0.01 0.287119)
(0.236596 0.01 0.287404)
(0.2115 0.01 0.2625)
(0.211596 0.01 0.262404)
(0.211881 0.01 0.262119)
(0.212343 0.01 0.261657)
(0.212964 0.01 0.261036)
(0.213722 0.01 0.260278)
(0.214587 0.01 0.259413)
(0.215525 0.01 0.258475)
(0.2165 0.01 0.2575)
(0.217475 0.01 0.256525)
(0.218413 0.01 0.255587)
(0.219278 0.01 0.254722)
(0.220036 0.01 0.253964)
(0.220657 0.01 0.253343)
(0.221119 0.01 0.252881)
(0.221404 0.01 0.252596)
(0.2215 0.01 0.2525)
(0.221404 0.01 0.252596)
(0.221119 0.01 0.252881)
(0.220657 0.01 0.253343)
(0.220036 0.01 0.253964)
(0.219278 0.01 0.254722)
(0.218413 0.01 0.255587)
(0.217475 0.01 0.256525)
(0.2165 0.01 0.2575)
(0.215525 0.01 0.258475)
(0.214587 0.01 0.259413)
(0.213722 0.01 0.260278)
(0.212964 0.01 0.261036)
(0.212343 0.01 0.261657)
(0.211881 0.01 0.262119)
(0.211596 0.01 0.262404)
(0.1865 0.01 0.2375)
(0.186596 0.01 0.237404)
(0.186881 0.01 0.237119)
(0.187343 0.01 0.236657)
(0.187964 0.01 0.236036)
(0.188722 0.01 0.235278)
(0.189587 0.01 0.234413)
(0.190525 0.01 0.233475)
(0.1915 0.01 0.2325)
(0.192475 0.01 0.231525)
(0.193413 0.01 0.230587)
(0.194278 0.01 0.229722)
(0.195036 0.01 0.228964)
(0.195657 0.01 0.228343)
(0.196119 0.01 0.227881)
(0.196404 0.01 0.227596)
(0.1965 0.01 0.2275)
(0.196404 0.01 0.227596)
(0.196119 0.01 0.227881)
(0.195657 0.01 0.228343)
(0.195036 0.01 0.228964)
(0.194278 0.01 0.229722)
(0.193413 0.01 0.230587)
(0.192475 0.01 0.231525)
(0.1915 0.01 0.2325)
(0.190525 0.01 0.233475)
(0.189587 0.01 0.234413)
(0.188722 0.01 0.235278)
(0.187964 0.01 0.236036)
(0.187343 0.01 0.236657)
(0.186881 0.01 0.237119)
(0.186596 0.01 0.237404)
(0.1615 0.01 0.2125)
(0.161596 0.01 0.212404)
(0.161881 0.01 0.212119)
(0.162343 0.01 0.211657)
(0.162964 0.01 0.211036)
(0.163722 0.01 0.210278)
(0.164587 0.01 0.209413)
(0.165525 0.01 0.208475)
(0.1665 0.01 0.2075)
(0.167475 0.01 0.206525)
(0.168413 0.01 0.205587)
(0.169278 0.01 0.204722)
(0.170036 0.01 0.203964)
(0.170657 0.01 0.203343)
(0.171119 0.01 0.202881)
(0.171404 0.01 0.202596)
(0.1715 0.01 0.2025)
(0.171404 0.01 0.202596)
(0.171119 0.01 0.202881)
(0.170657 0.01 0.203343)
(0.170036 0.01 0.203964)
(0.169278 0.01 0.204722)
(0.168413 0.01 0.205587)
(0.167475 0.01 0.206525)
(0.1665 0.01 0.2075)
(0.165525 0.01 0.208475)
(0.164587 0.01 0.209413)
(0.163722 0.01 0.210278)
(0.162964 0.01 0.211036)
(0.162343 0.01 0.211657)
(0.161881 0.01 0.212119)
(0.161596 0.01 0.212404)
(0.1365 0.01 0.1875)
(0.136596 0.01 0.187404)
(0.136881 0.01 0.187119)
(0.137343 0.01 0.186657)
(0.137964 0.01 0.186036)
(0.138722 0.01 0.185278)
(0.139587 0.01 0.184413)
(0.140525 0.01 0.183475)
(0.1415 0.01 0.1825)
(0.142475 0.01 0.181525)
(0.143413 0.01 0.180587)
(0.144278 0.01 0.179722)
(0.145036 0.01 0.178964)
(0.145657 0.01 0.178343)
(0.146119 0.01 0.177881)
(0.146404 0.01 0.177596)
(0.1465 0.01 0.1775)
(0.146404 0.01 0.177596)
(0.146119 0.01 0.177881)
(0.145657 0.01 0.178343)
(0.145036 0.01 0.178964)
(0.144278 0.01 0.179722)
(0.143413 0.01 0.180587)
(0.142475 0.01 0.181525)
(0.1415 0.01 0.1825)
(0.140525 0.01 0.183475)
(0.139587 0.01 0.184413)
(0.138722 0.01 0.185278)
(0.137964 0.01 0.186036)
(0.137343 0.01 0.186657)
(0.136881 0.01 0.187119)
(0.136596 0.01 0.187404)
(0.1115 0.01 0.1625)
(0.111596 0.01 0.162404)
(0.111881 0.01 0.162119)
(0.112343 0.01 0.161657)
(0.112964 0.01 0.161036)
(0.113722 0.01 0.160278)
(0.114587 0.01 0.159413)
(0.115525 0.01 0.158475)
(0.1165 0.01 0.1575)
(0.117475 0.01 0.156525)
(0.118413 0.01 0.155587)
(0.119278 0.01 0.154722)
(0.120036 0.01 0.153964)
(0.120657 0.01 0.153343)
(0.121119 0.01 0.152881)
(0.121404 0.01 0.152596)
(0.1215 0.01 0.1525)
(0.121404 0.01 0.152596)
(0.121119 0.01 0.152881)
(0.120657 0.01 0.153343)
(0.120036 0.01 0.153964)
(0.119278 0.01 0.154722)
(0.118413 0.01 0.155587)
(0.117475 0.01 0.156525)
(0.1165 0.01 0.1575)
(0.115525 0.01 0.158475)
(0.114587 0.01 0.159413)
(0.113722 0.01 0.160278)
(0.112964 0.01 0.161036)
(0.112343 0.01 0.161657)
(0.111881 0.01 0.162119)
(0.111596 0.01 0.162404)
(0.0865 0.01 0.1375)
(0.0865961 0.01 0.137404)
(0.0868806 0.01 0.137119)
(0.0873427 0.01 0.136657)
(0.0879645 0.01 0.136036)
(0.0887221 0.01 0.135278)
(0.0895866 0.01 0.134413)
(0.0905245 0.01 0.133475)
(0.0915 0.01 0.1325)
(0.0924755 0.01 0.131525)
(0.0934134 0.01 0.130587)
(0.0942779 0.01 0.129722)
(0.0950355 0.01 0.128964)
(0.0956574 0.01 0.128343)
(0.0961194 0.01 0.127881)
(0.0964039 0.01 0.127596)
(0.0965 0.01 0.1275)
(0.0964039 0.01 0.127596)
(0.0961194 0.01 0.127881)
(0.0956574 0.01 0.128343)
(0.0950355 0.01 0.128964)
(0.0942779 0.01 0.129722)
(0.0934134 0.01 0.130587)
(0.0924755 0.01 0.131525)
(0.0915 0.01 0.1325)
(0.0905245 0.01 0.133475)
(0.0895866 0.01 0.134413)
(0.0887221 0.01 0.135278)
(0.0879645 0.01 0.136036)
(0.0873427 0.01 0.136657)
(0.0868806 0.01 0.137119)
(0.0865961 0.01 0.137404)
(0.0615 0.01 0.1125)
(0.0615961 0.01 0.112404)
(0.0618806 0.01 0.112119)
(0.0623427 0.01 0.111657)
(0.0629645 0.01 0.111036)
(0.0637222 0.01 0.110278)
(0.0645866 0.01 0.109413)
(0.0655245 0.01 0.108475)
(0.0665 0.01 0.1075)
(0.0674755 0.01 0.106525)
(0.0684134 0.01 0.105587)
(0.0692779 0.01 0.104722)
(0.0700355 0.01 0.103964)
(0.0706574 0.01 0.103343)
(0.0711194 0.01 0.102881)
(0.0714039 0.01 0.102596)
(0.0715 0.01 0.1025)
(0.0714039 0.01 0.102596)
(0.0711194 0.01 0.102881)
(0.0706574 0.01 0.103343)
(0.0700355 0.01 0.103964)
(0.0692779 0.01 0.104722)
(0.0684134 0.01 0.105587)
(0.0674755 0.01 0.106525)
(0.0665 0.01 0.1075)
(0.0655245 0.01 0.108475)
(0.0645866 0.01 0.109413)
(0.0637222 0.01 0.110278)
(0.0629645 0.01 0.111036)
(0.0623427 0.01 0.111657)
(0.0618806 0.01 0.112119)
(0.0615961 0.01 0.112404)
(0.0365 0.01 0.0875)
(0.0365961 0.01 0.0874039)
(0.0368806 0.01 0.0871194)
(0.0373427 0.01 0.0866574)
(0.0379645 0.01 0.0860355)
(0.0387222 0.01 0.0852779)
(0.0395866 0.01 0.0844134)
(0.0405245 0.01 0.0834755)
(0.0415 0.01 0.0825)
(0.0424755 0.01 0.0815245)
(0.0434134 0.01 0.0805866)
(0.0442779 0.01 0.0797222)
(0.0450355 0.01 0.0789645)
(0.0456574 0.01 0.0783427)
(0.0461194 0.01 0.0778806)
(0.0464039 0.01 0.0775961)
(0.0465 0.01 0.0775)
(0.0464039 0.01 0.0775961)
(0.0461194 0.01 0.0778806)
(0.0456574 0.01 0.0783427)
(0.0450355 0.01 0.0789645)
(0.0442779 0.01 0.0797222)
(0.0434134 0.01 0.0805866)
(0.0424755 0.01 0.0815245)
(0.0415 0.01 0.0825)
(0.0405245 0.01 0.0834755)
(0.0395866 0.01 0.0844134)
(0.0387222 0.01 0.0852779)
(0.0379645 0.01 0.0860355)
(0.0373427 0.01 0.0866574)
(0.0368806 0.01 0.0871194)
(0.0365961 0.01 0.0874039)
(0.0115 0.01 0.0625)
(0.0115961 0.01 0.0624039)
(0.0118806 0.01 0.0621194)
(0.0123427 0.01 0.0616574)
(0.0129645 0.01 0.0610355)
(0.0137222 0.01 0.0602779)
(0.0145866 0.01 0.0594134)
(0.0155245 0.01 0.0584755)
(0.0165 0.01 0.0575)
(0.0174755 0.01 0.0565245)
(0.0184134 0.01 0.0555866)
(0.0192779 0.01 0.0547222)
(0.0200355 0.01 0.0539645)
(0.0206574 0.01 0.0533427)
(0.0211194 0.01 0.0528806)
(0.0214039 0.01 0.0525961)
(0.0215 0.01 0.0525)
(0.0214039 0.01 0.0525961)
(0.0211194 0.01 0.0528806)
(0.0206574 0.01 0.0533427)
(0.0200355 0.01 0.0539645)
(0.0192779 0.01 0.0547222)
(0.0184134 0.01 0.0555866)
(0.0174755 0.01 0.0565245)
(0.0165 0.01 0.0575)
(0.0155245 0.01 0.0584755)
(0.0145866 0.01 0.0594134)
(0.0137222 0.01 0.0602779)
(0.0129645 0.01 0.0610355)
(0.0123427 0.01 0.0616574)
(0.0118806 0.01 0.0621194)
(0.0115961 0.01 0.0624039)
(-0.0135 0.01 0.0375)
(-0.0134039 0.01 0.0374039)
(-0.0131194 0.01 0.0371194)
(-0.0126573 0.01 0.0366574)
(-0.0120355 0.01 0.0360355)
(-0.0112778 0.01 0.0352779)
(-0.0104134 0.01 0.0344134)
(-0.00947545 0.01 0.0334755)
(-0.0085 0.01 0.0325)
(-0.00752455 0.01 0.0315245)
(-0.00658658 0.01 0.0305866)
(-0.00572215 0.01 0.0297222)
(-0.00496447 0.01 0.0289645)
(-0.00434265 0.01 0.0283427)
(-0.0038806 0.01 0.0278806)
(-0.00359607 0.01 0.0275961)
(-0.0035 0.01 0.0275)
(-0.00359607 0.01 0.0275961)
(-0.0038806 0.01 0.0278806)
(-0.00434265 0.01 0.0283427)
(-0.00496447 0.01 0.0289645)
(-0.00572215 0.01 0.0297222)
(-0.00658658 0.01 0.0305866)
(-0.00752455 0.01 0.0315245)
(-0.0085 0.01 0.0325)
(-0.00947545 0.01 0.0334755)
(-0.0104134 0.01 0.0344134)
(-0.0112778 0.01 0.0352779)
(-0.0120355 0.01 0.0360355)
(-0.0126573 0.01 0.0366574)
(-0.0131194 0.01 0.0371194)
(-0.0134039 0.01 0.0374039)
(-0.0385 0.01 0.0125)
(-0.0384039 0.01 0.0124039)
(-0.0381194 0.01 0.0121194)
(-0.0376574 0.01 0.0116573)
(-0.0370355 0.01 0.0110355)
(-0.0362779 0.01 0.0102778)
(-0.0354134 0.01 0.00941342)
(-0.0344755 0.01 0.00847545)
(-0.0335 0.01 0.0075)
(-0.0325245 0.01 0.00652455)
(-0.0315866 0.01 0.00558658)
(-0.0307222 0.01 0.00472215)
(-0.0299645 0.01 0.00396447)
(-0.0293427 0.01 0.00334265)
(-0.0288806 0.01 0.0028806)
(-0.0285961 0.01 0.00259607)
(-0.0285 0.01 0.0025)
(-0.0285961 0.01 0.00259607)
(-0.0288806 0.01 0.0028806)
(-0.0293427 0.01 0.00334265)
(-0.0299645 0.01 0.00396447)
(-0.0307222 0.01 0.00472215)
(-0.0315866 0.01 0.00558658)
(-0.0325245 0.01 0.00652455)
(-0.0335 0.01 0.0075)
(-0.0344755 0.01 0.00847545)
(-0.0354134 0.01 0.00941342)
(-0.0362779 0.01 0.0102778)
(-0.0370355 0.01 0.0110355)
(-0.0376574 0.01 0.0116573)
(-0.0381194 0.01 0.0121194)
(-0.0384039 0.01 0.0124039)
(-0.0635 0.01 -0.0125)
(-0.0634039 0.01 -0.0125961)
(-0.0631194 0.01 -0.0128806)
(-0.0626574 0.01 -0.0133427)
(-0.0620355 0.01 -0.0139645)
(-0.0612779 0.01 -0.0147222)
(-0.0604134 0.01 -0.0155866)
(-0.0594755 0.01 -0.0165245)
(-0.0585 0.01 -0.0175)
(-0.0575245 0.01 -0.0184755)
(-0.0565866 0.01 -0.0194134)
(-0.0557221 0.01 -0.0202779)
(-0.0549645 0.01 -0.0210355)
(-0.0543426 0.01 -0.0216574)
(-0.0538806 0.01 -0.0221194)
(-0.0535961 0.01 -0.0224039)
(-0.0535 0.01 -0.0225)
(-0.0535961 0.01 -0.0224039)
(-0.0538806 0.01 -0.0221194)
(-0.0543426 0.01 -0.0216574)
(-0.0549645 0.01 -0.0210355)
(-0.0557221 0.01 -0.0202779)
(-0.0565866 0.01 -0.0194134)
(-0.0575245 0.01 -0.0184755)
(-0.0585 0.01 -0.0175)
(-0.0594755 0.01 -0.0165245)
(-0.0604134 0.01 -0.0155866)
(-0.0612779 0.01 -0.0147222)
(-0.0620355 0.01 -0.0139645)
(-0.0626574 0.01 -0.0133427)
(-0.0631194 0.01 -0.0128806)
(-0.0634039 0.01 -0.0125961)
(-0.0885 0.01 -0.0375)
(-0.0884039 0.01 -0.0375961)
(-0.0881194 0.01 -0.0378806)
(-0.0876573 0.01 -0.0383426)
(-0.0870355 0.01 -0.0389645)
(-0.0862778 0.01 -0.0397221)
(-0.0854134 0.01 -0.0405866)
(-0.0844755 0.01 -0.0415245)
(-0.0835 0.01 -0.0425)
(-0.0825245 0.01 -0.0434755)
(-0.0815866 0.01 -0.0444134)
(-0.0807221 0.01 -0.0452778)
(-0.0799645 0.01 -0.0460355)
(-0.0793426 0.01 -0.0466573)
(-0.0788806 0.01 -0.0471194)
(-0.0785961 0.01 -0.0474039)
(-0.0785 0.01 -0.0475)
(-0.0785961 0.01 -0.0474039)
(-0.0788806 0.01 -0.0471194)
(-0.0793426 0.01 -0.0466573)
(-0.0799645 0.01 -0.0460355)
(-0.0807221 0.01 -0.0452778)
(-0.0815866 0.01 -0.0444134)
(-0.0825245 0.01 -0.0434755)
(-0.0835 0.01 -0.0425)
(-0.0844755 0.01 -0.0415245)
(-0.0854134 0.01 -0.0405866)
(-0.0862778 0.01 -0.0397221)
(-0.0870355 0.01 -0.0389645)
(-0.0876573 0.01 -0.0383426)
(-0.0881194 0.01 -0.0378806)
(-0.0884039 0.01 -0.0375961)
(-0.1135 0.01 -0.0625)
(-0.113404 0.01 -0.0625961)
(-0.113119 0.01 -0.0628806)
(-0.112657 0.01 -0.0633426)
(-0.112036 0.01 -0.0639645)
(-0.111278 0.01 -0.0647221)
(-0.110413 0.01 -0.0655866)
(-0.109475 0.01 -0.0665245)
(-0.1085 0.01 -0.0675)
(-0.107525 0.01 -0.0684755)
(-0.106587 0.01 -0.0694134)
(-0.105722 0.01 -0.0702778)
(-0.104964 0.01 -0.0710355)
(-0.104343 0.01 -0.0716573)
(-0.103881 0.01 -0.0721194)
(-0.103596 0.01 -0.0724039)
(-0.1035 0.01 -0.0725)
(-0.103596 0.01 -0.0724039)
(-0.103881 0.01 -0.0721194)
(-0.104343 0.01 -0.0716573)
(-0.104964 0.01 -0.0710355)
(-0.105722 0.01 -0.0702778)
(-0.106587 0.01 -0.0694134)
(-0.107525 0.01 -0.0684755)
(-0.1085 0.01 -0.0675)
(-0.109475 0.01 -0.0665245)
(-0.110413 0.01 -0.0655866)
(-0.111278 0.01 -0.0647221)
(-0.112036 0.01 -0.0639645)
(-0.112657 0.01 -0.0633426)
(-0.113119 0.01 -0.0628806)
(-0.113404 0.01 -0.0625961)
(-0.1385 0.01 -0.0875)
(-0.138404 0.01 -0.0875961)
(-0.138119 0.01 -0.0878806)
(-0.137657 0.01 -0.0883427)
(-0.137036 0.01 -0.0889645)
(-0.136278 0.01 -0.0897222)
(-0.135413 0.01 -0.0905866)
(-0.134475 0.01 -0.0915245)
(-0.1335 0.01 -0.0925)
(-0.132525 0.01 -0.0934755)
(-0.131587 0.01 -0.0944134)
(-0.130722 0.01 -0.0952779)
(-0.129964 0.01 -0.0960355)
(-0.129343 0.01 -0.0966574)
(-0.128881 0.01 -0.0971194)
(-0.128596 0.01 -0.0974039)
(-0.1285 0.01 -0.0975)
(-0.128596 0.01 -0.0974039)
(-0.128881 0.01 -0.0971194)
(-0.129343 0.01 -0.0966574)
(-0.129964 0.01 -0.0960355)
(-0.130722 0.01 -0.0952779)
(-0.131587 0.01 -0.0944134)
(-0.132525 0.01 -0.0934755)
(-0.1335 0.01 -0.0925)
(-0.134475 0.01 -0.0915245)
(-0.135413 0.01 -0.0905866)
(-0.136278 0.01 -0.0897222)
(-0.137036 0.01 -0.0889645)
(-0.137657 0.01 -0.0883427)
(-0.138119 0.01 -0.0878806)
(-0.138404 0.01 -0.0875961)
)
;

boundaryField
{
    left_0
    {
        type            calculated;
    }
    left_1
    {
        type            calculated;
    }
    right_0
    {
        type            calculated;
    }
    right_1
    {
        type            calculated;
    }
    beam
    {
        type            empty;
    }
}


// ************************************************************************* //
