/*--------------------------------*- C++ -*----------------------------------*\
| =========                 |                                                 |
| \\      /  F ield         | foam-extend: Open Source CFD                    |
|  \\    /   O peration     | Version:     4.0                                |
|   \\  /    A nd           | Web:         http://www.foam-extend.org         |
|    \\/     M anipulation  |                                                 |
\*---------------------------------------------------------------------------*/
FoamFile
{
    version     2.0;
    format      ascii;
    class       surfaceVectorField;
    location    "0";
    object      dR0Ds;
}
// * * * * * * * * * * * * * * * * * * * * * * * * * * * * * * * * * * * * * //

dimensions      [0 0 0 0 0 0 0];

internalField   nonuniform List<vector> 
99
(
(0.968583 0.24869 2.12491e-18)
(0.876307 0.481754 9.85179e-18)
(0.728969 0.684547 -2.66579e-17)
(0.535827 0.844328 2.99418e-17)
(0.309016 0.951057 -2.74305e-17)
(0.0627906 0.998027 -1.54541e-18)
(-0.187381 0.982287 5.87245e-17)
(-0.425777 0.904828 -1.71924e-17)
(-0.637423 0.770514 -3.03279e-17)
(-0.809018 0.587784 1.41015e-17)
(-0.929778 0.368122 -1.0103e-16)
(-0.992115 0.125333 1.20926e-16)
(-0.992115 -0.125333 1.08172e-17)
(-0.929778 -0.368122 -3.1101e-17)
(-0.809018 -0.587784 -4.92585e-17)
(-0.637423 -0.770514 3.36115e-17)
(-0.425777 -0.904828 -1.35221e-17)
(-0.187381 -0.982287 3.70892e-17)
(0.0627906 -0.998027 -1.27494e-17)
(0.309016 -0.951057 4.24981e-18)
(0.535827 -0.844328 -5.0225e-18)
(0.728969 -0.684547 6.95422e-18)
(0.876307 -0.481754 -1.73856e-18)
(0.968583 -0.24869 8.30643e-18)
(1 -1.02617e-16 -9.27229e-18)
(0.968583 0.24869 2.04762e-17)
(0.876307 0.481754 2.1249e-17)
(0.728969 0.684547 -3.26461e-17)
(0.535827 0.844328 -5.98836e-18)
(0.309016 0.951057 -1.46811e-17)
(0.0627906 0.998027 -1.1204e-17)
(-0.187381 0.982287 7.68828e-17)
(-0.425777 0.904828 -4.24979e-17)
(-0.637423 0.770514 -3.26459e-17)
(-0.809018 0.587784 3.28377e-18)
(-0.929778 0.368122 -8.26784e-17)
(-0.992115 0.125333 1.31358e-16)
(-0.992115 -0.125333 1.62259e-17)
(-0.929778 -0.368122 -4.03733e-17)
(-0.809018 -0.587784 -3.12937e-17)
(-0.637423 -0.770514 3.30322e-17)
(-0.425777 -0.904828 -2.97485e-17)
(-0.187381 -0.982287 2.31807e-17)
(0.0627906 -0.998027 -1.078e-23)
(0.309016 -0.951057 -1.02382e-17)
(0.535827 -0.844328 -1.27494e-17)
(0.728969 -0.684547 -4.44293e-18)
(0.876307 -0.481754 1.10109e-17)
(0.968583 -0.24869 -8.69279e-18)
(1 -9.32879e-18 1.39084e-17)
(0.968583 0.24869 -3.47708e-18)
(0.876307 0.481754 3.76686e-17)
(0.728969 0.684547 -6.37471e-17)
(0.535827 0.844328 4.23049e-17)
(0.309016 0.951057 -4.05662e-17)
(0.0627906 0.998027 -3.86405e-19)
(-0.187381 0.982287 1.18222e-16)
(-0.425777 0.904828 -8.22913e-17)
(-0.637423 0.770514 4.24973e-18)
(-0.809018 0.587784 -6.37462e-18)
(-0.929778 0.368122 -8.13262e-17)
(-0.992115 0.125333 1.17063e-16)
(-0.992115 -0.125333 2.26005e-17)
(-0.929778 -0.368122 -6.02702e-17)
(-0.809018 -0.587784 -3.20663e-17)
(-0.637423 -0.770514 5.62127e-17)
(-0.425777 -0.904828 -4.13388e-17)
(-0.187381 -0.982287 2.08627e-17)
(0.0627906 -0.998027 3.67027e-18)
(0.309016 -0.951057 -1.15904e-17)
(0.535827 -0.844328 2.89759e-18)
(0.728969 -0.684547 6.76105e-18)
(0.876307 -0.481754 -1.15903e-17)
(0.968583 -0.24869 3.86343e-18)
(1 1.30603e-16 1.21699e-17)
(0.968583 0.24869 -1.31357e-17)
(0.876307 0.481754 3.41915e-17)
(0.728969 0.684547 -1.62265e-17)
(0.535827 0.844328 2.70442e-18)
(0.309016 0.951057 -3.61233e-17)
(0.0627906 0.998027 7.72654e-19)
(-0.187381 0.982287 8.01667e-17)
(-0.425777 0.904828 -4.30774e-17)
(-0.637423 0.770514 -2.0283e-17)
(-0.809018 0.587784 -1.15904e-17)
(-0.929778 0.368122 -7.32129e-17)
(-0.992115 0.125333 1.21313e-16)
(-0.992115 -0.125333 4.05605e-18)
(-0.929778 -0.368122 -4.53958e-17)
(-0.809018 -0.587784 -3.22594e-17)
(-0.637423 -0.770514 2.33735e-17)
(-0.425777 -0.904828 1.04312e-17)
(-0.187381 -0.982287 2.51125e-17)
(0.0627906 -0.998027 -1.08177e-17)
(0.309016 -0.951057 -2.31807e-17)
(0.535827 -0.844328 3.47712e-18)
(0.728969 -0.684547 -3.67025e-18)
(0.876307 -0.481754 1.1204e-17)
(0.968583 -0.24869 6.37468e-18)
)
;

boundaryField
{
    left
    {
        type            calculated;
        value           uniform (-0.994208 -0.107477 8.48262e-18);
    }
    right
    {
        type            calculated;
        value           uniform (0.994208 -0.107477 1.62909e-17);
    }
    beam
    {
        type            empty;
    }
}


// ************************************************************************* //
