/*--------------------------------*- C++ -*----------------------------------*\
| =========                 |                                                 |
| \\      /  F ield         | foam-extend: Open Source CFD                    |
|  \\    /   O peration     | Version:     4.0                                |
|   \\  /    A nd           | Web:         http://www.foam-extend.org         |
|    \\/     M anipulation  |                                                 |
\*---------------------------------------------------------------------------*/
FoamFile
{
    version     2.0;
    format      ascii;
    class       surfaceTensorField;
    location    "0";
    object      refLambda;
}
// * * * * * * * * * * * * * * * * * * * * * * * * * * * * * * * * * * * * * //

dimensions      [0 0 0 0 0 0 0];

internalField   nonuniform List<tensor> 
99
(
(0.968583 -0.24869 0 0.24869 0.968583 0 0 0 1)
(0.876307 -0.481754 0 0.481754 0.876307 0 0 0 1)
(0.728969 -0.684547 0 0.684547 0.728969 0 0 0 1)
(0.535827 -0.844328 0 0.844328 0.535827 0 0 0 1)
(0.309017 -0.951057 0 0.951057 0.309017 0 0 0 1)
(0.0627905 -0.998027 0 0.998027 0.0627905 0 0 0 1)
(-0.187381 -0.982287 0 0.982287 -0.187381 0 0 0 1)
(-0.425779 -0.904827 0 0.904827 -0.425779 0 0 0 1)
(-0.637424 -0.770513 0 0.770513 -0.637424 0 0 0 1)
(-0.809017 -0.587785 0 0.587785 -0.809017 0 0 0 1)
(-0.929776 -0.368125 0 0.368125 -0.929776 0 0 0 1)
(-0.992115 -0.125333 0 0.125333 -0.992115 0 0 0 1)
(-0.992115 0.125333 0 -0.125333 -0.992115 0 0 0 1)
(-0.929776 0.368125 0 -0.368125 -0.929776 0 0 0 1)
(-0.809017 0.587785 0 -0.587785 -0.809017 0 0 0 1)
(-0.637424 0.770513 0 -0.770513 -0.637424 0 0 0 1)
(-0.425779 0.904827 0 -0.904827 -0.425779 0 0 0 1)
(-0.187381 0.982287 0 -0.982287 -0.187381 0 0 0 1)
(0.0627905 0.998027 0 -0.998027 0.0627905 0 0 0 1)
(0.309017 0.951057 0 -0.951057 0.309017 0 0 0 1)
(0.535827 0.844328 0 -0.844328 0.535827 0 0 0 1)
(0.728969 0.684547 0 -0.684547 0.728969 0 0 0 1)
(0.876307 0.481754 0 -0.481754 0.876307 0 0 0 1)
(0.968583 0.24869 0 -0.24869 0.968583 0 0 0 1)
(1 2.44929e-16 0 -2.44929e-16 1 0 0 0 1)
(0.968583 -0.24869 0 0.24869 0.968583 0 0 0 1)
(0.876307 -0.481754 0 0.481754 0.876307 0 0 0 1)
(0.728969 -0.684547 0 0.684547 0.728969 0 0 0 1)
(0.535827 -0.844328 0 0.844328 0.535827 0 0 0 1)
(0.309017 -0.951057 0 0.951057 0.309017 0 0 0 1)
(0.0627905 -0.998027 0 0.998027 0.0627905 0 0 0 1)
(-0.187381 -0.982287 0 0.982287 -0.187381 0 0 0 1)
(-0.425779 -0.904827 0 0.904827 -0.425779 0 0 0 1)
(-0.637424 -0.770513 0 0.770513 -0.637424 0 0 0 1)
(-0.809017 -0.587785 0 0.587785 -0.809017 0 0 0 1)
(-0.929776 -0.368125 0 0.368125 -0.929776 0 0 0 1)
(-0.992115 -0.125333 0 0.125333 -0.992115 0 0 0 1)
(-0.992115 0.125333 0 -0.125333 -0.992115 0 0 0 1)
(-0.929776 0.368125 0 -0.368125 -0.929776 0 0 0 1)
(-0.809017 0.587785 0 -0.587785 -0.809017 0 0 0 1)
(-0.637424 0.770513 0 -0.770513 -0.637424 0 0 0 1)
(-0.425779 0.904827 0 -0.904827 -0.425779 0 0 0 1)
(-0.187381 0.982287 0 -0.982287 -0.187381 0 0 0 1)
(0.0627905 0.998027 0 -0.998027 0.0627905 0 0 0 1)
(0.309017 0.951057 0 -0.951057 0.309017 0 0 0 1)
(0.535827 0.844328 0 -0.844328 0.535827 0 0 0 1)
(0.728969 0.684547 0 -0.684547 0.728969 0 0 0 1)
(0.876307 0.481754 0 -0.481754 0.876307 0 0 0 1)
(0.968583 0.24869 0 -0.24869 0.968583 0 0 0 1)
(1 5.81893e-15 0 -5.81893e-15 1 0 0 0 1)
(0.968583 -0.24869 0 0.24869 0.968583 0 0 0 1)
(0.876307 -0.481754 0 0.481754 0.876307 0 0 0 1)
(0.728969 -0.684547 0 0.684547 0.728969 0 0 0 1)
(0.535827 -0.844328 0 0.844328 0.535827 0 0 0 1)
(0.309017 -0.951057 0 0.951057 0.309017 0 0 0 1)
(0.0627905 -0.998027 0 0.998027 0.0627905 0 0 0 1)
(-0.187381 -0.982287 0 0.982287 -0.187381 0 0 0 1)
(-0.425779 -0.904827 0 0.904827 -0.425779 0 0 0 1)
(-0.637424 -0.770513 0 0.770513 -0.637424 0 0 0 1)
(-0.809017 -0.587785 0 0.587785 -0.809017 0 0 0 1)
(-0.929776 -0.368125 0 0.368125 -0.929776 0 0 0 1)
(-0.992115 -0.125333 0 0.125333 -0.992115 0 0 0 1)
(-0.992115 0.125333 0 -0.125333 -0.992115 0 0 0 1)
(-0.929776 0.368125 0 -0.368125 -0.929776 0 0 0 1)
(-0.809017 0.587785 0 -0.587785 -0.809017 0 0 0 1)
(-0.637424 0.770513 0 -0.770513 -0.637424 0 0 0 1)
(-0.425779 0.904827 0 -0.904827 -0.425779 0 0 0 1)
(-0.187381 0.982287 0 -0.982287 -0.187381 0 0 0 1)
(0.0627905 0.998027 0 -0.998027 0.0627905 0 0 0 1)
(0.309017 0.951057 0 -0.951057 0.309017 0 0 0 1)
(0.535827 0.844328 0 -0.844328 0.535827 0 0 0 1)
(0.728969 0.684547 0 -0.684547 0.728969 0 0 0 1)
(0.876307 0.481754 0 -0.481754 0.876307 0 0 0 1)
(0.968583 0.24869 0 -0.24869 0.968583 0 0 0 1)
(1 4.2875e-15 0 -4.2875e-15 1 0 0 0 1)
(0.968583 -0.24869 0 0.24869 0.968583 0 0 0 1)
(0.876307 -0.481754 0 0.481754 0.876307 0 0 0 1)
(0.728969 -0.684547 0 0.684547 0.728969 0 0 0 1)
(0.535827 -0.844328 0 0.844328 0.535827 0 0 0 1)
(0.309017 -0.951057 0 0.951057 0.309017 0 0 0 1)
(0.0627905 -0.998027 0 0.998027 0.0627905 0 0 0 1)
(-0.187381 -0.982287 0 0.982287 -0.187381 0 0 0 1)
(-0.425779 -0.904827 0 0.904827 -0.425779 0 0 0 1)
(-0.637424 -0.770513 0 0.770513 -0.637424 0 0 0 1)
(-0.809017 -0.587785 0 0.587785 -0.809017 0 0 0 1)
(-0.929776 -0.368125 0 0.368125 -0.929776 0 0 0 1)
(-0.992115 -0.125333 0 0.125333 -0.992115 0 0 0 1)
(-0.992115 0.125333 0 -0.125333 -0.992115 0 0 0 1)
(-0.929776 0.368125 0 -0.368125 -0.929776 0 0 0 1)
(-0.809017 0.587785 0 -0.587785 -0.809017 0 0 0 1)
(-0.637424 0.770513 0 -0.770513 -0.637424 0 0 0 1)
(-0.425779 0.904827 0 -0.904827 -0.425779 0 0 0 1)
(-0.187381 0.982287 0 -0.982287 -0.187381 0 0 0 1)
(0.0627905 0.998027 0 -0.998027 0.0627905 0 0 0 1)
(0.309017 0.951057 0 -0.951057 0.309017 0 0 0 1)
(0.535827 0.844328 0 -0.844328 0.535827 0 0 0 1)
(0.728969 0.684547 0 -0.684547 0.728969 0 0 0 1)
(0.876307 0.481754 0 -0.481754 0.876307 0 0 0 1)
(0.968583 0.24869 0 -0.24869 0.968583 0 0 0 1)
)
;

boundaryField
{
    left
    {
        type            calculated;
        value           uniform (1 -1.48107e-34 0 1.48107e-34 1 0 0 0 1);
    }
    right
    {
        type            calculated;
        value           uniform (1 4.53243e-15 0 -4.53243e-15 1 0 0 0 1);
    }
    beam
    {
        type            empty;
    }
}


// ************************************************************************* //
