/*--------------------------------*- C++ -*----------------------------------*\
| =========                 |                                                 |
| \\      /  F ield         | foam-extend: Open Source CFD                    |
|  \\    /   O peration     | Version:     4.1                                |
|   \\  /    A nd           | Web:         http://www.foam-extend.org         |
|    \\/     M anipulation  |                                                 |
\*---------------------------------------------------------------------------*/
FoamFile
{
    version     2.0;
    format      ascii;
    class       surfaceTensorField;
    location    "0";
    object      refLambda;
}
// * * * * * * * * * * * * * * * * * * * * * * * * * * * * * * * * * * * * * //

dimensions      [0 0 0 0 0 0 0];

internalField   nonuniform List<tensor> 
49
(
(0.999877 -0.0157073 0 0.0157073 0.999877 0 0 0 1)
(0.999507 -0.0314108 0 0.0314108 0.999507 0 0 0 1)
(0.99889 -0.0471065 0 0.0471065 0.99889 0 0 0 1)
(0.998027 -0.0627905 0 0.0627905 0.998027 0 0 0 1)
(0.996917 -0.0784591 0 0.0784591 0.996917 0 0 0 1)
(0.995562 -0.0941083 0 0.0941083 0.995562 0 0 0 1)
(0.993961 -0.109734 0 0.109734 0.993961 0 0 0 1)
(0.992115 -0.125333 0 0.125333 0.992115 0 0 0 1)
(0.990024 -0.140901 0 0.140901 0.990024 0 0 0 1)
(0.987688 -0.156434 0 0.156434 0.987688 0 0 0 1)
(0.985109 -0.171929 0 0.171929 0.985109 0 0 0 1)
(0.982287 -0.187381 0 0.187381 0.982287 0 0 0 1)
(0.979223 -0.202787 0 0.202787 0.979223 0 0 0 1)
(0.975917 -0.218143 0 0.218143 0.975917 0 0 0 1)
(0.97237 -0.233445 0 0.233445 0.97237 0 0 0 1)
(0.968583 -0.24869 0 0.24869 0.968583 0 0 0 1)
(0.964557 -0.263873 0 0.263873 0.964557 0 0 0 1)
(0.960294 -0.278991 0 0.278991 0.960294 0 0 0 1)
(0.955793 -0.29404 0 0.29404 0.955793 0 0 0 1)
(0.951057 -0.309017 0 0.309017 0.951057 0 0 0 1)
(0.946085 -0.323917 0 0.323917 0.946085 0 0 0 1)
(0.940881 -0.338738 0 0.338738 0.940881 0 0 0 1)
(0.935444 -0.353475 0 0.353475 0.935444 0 0 0 1)
(0.929776 -0.368125 0 0.368125 0.929776 0 0 0 1)
(0.92388 -0.382683 0 0.382683 0.92388 0 0 0 1)
(0.917755 -0.397148 0 0.397148 0.917755 0 0 0 1)
(0.911403 -0.411514 0 0.411514 0.911403 0 0 0 1)
(0.904827 -0.425779 0 0.425779 0.904827 0 0 0 1)
(0.898028 -0.439939 0 0.439939 0.898028 0 0 0 1)
(0.891007 -0.45399 0 0.45399 0.891007 0 0 0 1)
(0.883766 -0.46793 0 0.46793 0.883766 0 0 0 1)
(0.876307 -0.481754 0 0.481754 0.876307 0 0 0 1)
(0.868632 -0.495459 0 0.495459 0.868632 0 0 0 1)
(0.860742 -0.509041 0 0.509041 0.860742 0 0 0 1)
(0.85264 -0.522499 0 0.522499 0.85264 0 0 0 1)
(0.844328 -0.535827 0 0.535827 0.844328 0 0 0 1)
(0.835807 -0.549023 0 0.549023 0.835807 0 0 0 1)
(0.827081 -0.562083 0 0.562083 0.827081 0 0 0 1)
(0.81815 -0.575005 0 0.575005 0.81815 0 0 0 1)
(0.809017 -0.587785 0 0.587785 0.809017 0 0 0 1)
(0.799685 -0.60042 0 0.60042 0.799685 0 0 0 1)
(0.790155 -0.612907 0 0.612907 0.790155 0 0 0 1)
(0.78043 -0.625243 0 0.625243 0.78043 0 0 0 1)
(0.770513 -0.637424 0 0.637424 0.770513 0 0 0 1)
(0.760406 -0.649448 0 0.649448 0.760406 0 0 0 1)
(0.750111 -0.661312 0 0.661312 0.750111 0 0 0 1)
(0.739631 -0.673013 0 0.673013 0.739631 0 0 0 1)
(0.728969 -0.684547 0 0.684547 0.728969 0 0 0 1)
(0.718126 -0.695913 0 0.695913 0.718126 0 0 0 1)
)
;

boundaryField
{
    left
    {
        type            calculated;
        value           uniform (1 -8.83946e-36 0 8.83946e-36 1 0 0 0 1);
    }
    right
    {
        type            calculated;
        value           uniform (0.707107 -0.707107 0 0.707107 0.707107 0 0 0 1);
    }
    beam
    {
        type            empty;
    }
}


// ************************************************************************* //
