/*--------------------------------*- C++ -*----------------------------------*\
| =========                 |                                                 |
| \\      /  F ield         | foam-extend: Open Source CFD                    |
|  \\    /   O peration     | Version:     4.1                                |
|   \\  /    A nd           | Web:         http://www.foam-extend.org         |
|    \\/     M anipulation  |                                                 |
\*---------------------------------------------------------------------------*/
FoamFile
{
    version     2.0;
    format      ascii;
    class       volTensorField;
    location    "0";
    object      refRM;
}
// * * * * * * * * * * * * * * * * * * * * * * * * * * * * * * * * * * * * * //

dimensions      [0 0 0 0 0 0 0];

internalField   nonuniform List<tensor> 
50
(
(0.999969 -0.0078539 0 0.0078539 0.999969 0 0 0 1)
(0.999722 -0.0235598 0 0.0235598 0.999722 0 0 0 1)
(0.999229 -0.0392598 0 0.0392598 0.999229 0 0 0 1)
(0.998489 -0.0549502 0 0.0549502 0.998489 0 0 0 1)
(0.997503 -0.070627 0 0.070627 0.997503 0 0 0 1)
(0.99627 -0.0862864 0 0.0862864 0.99627 0 0 0 1)
(0.994792 -0.101924 0 0.101924 0.994792 0 0 0 1)
(0.993068 -0.117537 0 0.117537 0.993068 0 0 0 1)
(0.9911 -0.133121 0 0.133121 0.9911 0 0 0 1)
(0.988886 -0.148672 0 0.148672 0.988886 0 0 0 1)
(0.986429 -0.164187 0 0.164187 0.986429 0 0 0 1)
(0.983729 -0.179661 0 0.179661 0.983729 0 0 0 1)
(0.980785 -0.19509 0 0.19509 0.980785 0 0 0 1)
(0.9776 -0.210472 0 0.210472 0.9776 0 0 0 1)
(0.974173 -0.225801 0 0.225801 0.974173 0 0 0 1)
(0.970506 -0.241075 0 0.241075 0.970506 0 0 0 1)
(0.9666 -0.256289 0 0.256289 0.9666 0 0 0 1)
(0.962455 -0.27144 0 0.27144 0.962455 0 0 0 1)
(0.958073 -0.286525 0 0.286525 0.958073 0 0 0 1)
(0.953454 -0.301538 0 0.301538 0.953454 0 0 0 1)
(0.9486 -0.316477 0 0.316477 0.9486 0 0 0 1)
(0.943512 -0.331338 0 0.331338 0.943512 0 0 0 1)
(0.938191 -0.346117 0 0.346117 0.938191 0 0 0 1)
(0.932639 -0.360811 0 0.360811 0.932639 0 0 0 1)
(0.926857 -0.375416 0 0.375416 0.926857 0 0 0 1)
(0.920845 -0.389928 0 0.389928 0.920845 0 0 0 1)
(0.914607 -0.404344 0 0.404344 0.914607 0 0 0 1)
(0.908143 -0.41866 0 0.41866 0.908143 0 0 0 1)
(0.901455 -0.432873 0 0.432873 0.901455 0 0 0 1)
(0.894545 -0.446979 0 0.446979 0.894545 0 0 0 1)
(0.887413 -0.460974 0 0.460974 0.887413 0 0 0 1)
(0.880063 -0.474856 0 0.474856 0.880063 0 0 0 1)
(0.872496 -0.488621 0 0.488621 0.872496 0 0 0 1)
(0.864713 -0.502266 0 0.502266 0.864713 0 0 0 1)
(0.856718 -0.515786 0 0.515786 0.856718 0 0 0 1)
(0.84851 -0.529179 0 0.529179 0.84851 0 0 0 1)
(0.840094 -0.542442 0 0.542442 0.840094 0 0 0 1)
(0.83147 -0.55557 0 0.55557 0.83147 0 0 0 1)
(0.822641 -0.568562 0 0.568562 0.822641 0 0 0 1)
(0.813608 -0.581413 0 0.581413 0.813608 0 0 0 1)
(0.804376 -0.594121 0 0.594121 0.804376 0 0 0 1)
(0.794944 -0.606682 0 0.606682 0.794944 0 0 0 1)
(0.785317 -0.619094 0 0.619094 0.785317 0 0 0 1)
(0.775496 -0.631353 0 0.631353 0.775496 0 0 0 1)
(0.765483 -0.643456 0 0.643456 0.765483 0 0 0 1)
(0.755282 -0.6554 0 0.6554 0.755282 0 0 0 1)
(0.744894 -0.667183 0 0.667183 0.744894 0 0 0 1)
(0.734323 -0.678801 0 0.678801 0.734323 0 0 0 1)
(0.72357 -0.690251 0 0.690251 0.72357 0 0 0 1)
(0.712639 -0.701531 0 0.701531 0.712639 0 0 0 1)
)
;

boundaryField
{
    left
    {
        type            calculated;
        value           uniform (1 -8.83946e-36 0 8.83946e-36 1 0 0 0 1);
    }
    right
    {
        type            calculated;
        value           uniform (0.707107 -0.707107 0 0.707107 0.707107 0 0 0 1);
    }
    beam
    {
        type            empty;
    }
}


// ************************************************************************* //
