/*--------------------------------*- C++ -*----------------------------------*\
| =========                 |                                                 |
| \\      /  F ield         | foam-extend: Open Source CFD                    |
|  \\    /   O peration     | Version:     4.1                                |
|   \\  /    A nd           | Web:         http://www.foam-extend.org         |
|    \\/     M anipulation  |                                                 |
\*---------------------------------------------------------------------------*/
FoamFile
{
    version     2.0;
    format      ascii;
    class       surfaceVectorField;
    location    "0";
    object      refWf;
}
// * * * * * * * * * * * * * * * * * * * * * * * * * * * * * * * * * * * * * //

dimensions      [0 1 0 0 0 0 0];

internalField   nonuniform List<vector> 
49
(
(-6.45958e-05 0.0123368 0)
(-0.000516747 0.0493441 0)
(-0.00174391 0.111013 0)
(-0.00413336 0.197328 0)
(-0.00807208 0.308267 0)
(-0.0139467 0.443805 0)
(-0.0221432 0.603906 0)
(-0.0330473 0.788532 0)
(-0.0470439 0.997637 0)
(-0.0645169 1.23117 0)
(-0.0858498 1.48907 0)
(-0.111425 1.77128 0)
(-0.141623 2.07772 0)
(-0.176825 2.40833 0)
(-0.217409 2.76301 0)
(-0.263753 3.14169 0)
(-0.316233 3.54427 0)
(-0.375224 3.97064 0)
(-0.441099 4.42071 0)
(-0.514228 4.89436 0)
(-0.594982 5.39148 0)
(-0.683729 5.91194 0)
(-0.780833 6.45561 0)
(-0.886659 7.02237 0)
(-1.00157 7.61206 0)
(-1.12592 8.22456 0)
(-1.26007 8.85969 0)
(-1.40437 9.51732 0)
(-1.55918 10.1973 0)
(-1.72484 10.8994 0)
(-1.90171 11.6235 0)
(-2.09012 12.3694 0)
(-2.29042 13.1369 0)
(-2.50294 13.9258 0)
(-2.72802 14.736 0)
(-2.966 15.5672 0)
(-3.21719 16.4193 0)
(-3.48193 17.292 0)
(-3.76054 18.1851 0)
(-4.05334 19.0983 0)
(-4.36064 20.0316 0)
(-4.68275 20.9845 0)
(-5.01999 21.957 0)
(-5.37265 22.9487 0)
(-5.74104 23.9595 0)
(-6.12546 24.989 0)
(-6.52619 26.037 0)
(-6.94353 27.1032 0)
(-7.37776 28.1874 0)
)
;

boundaryField
{
    left
    {
        type            calculated;
        value           uniform (0 0 0);
    }
    right
    {
        type            calculated;
        value           uniform (-7.82916 29.2894 0);
    }
    beam
    {
        type            empty;
    }
}


// ************************************************************************* //
