/*--------------------------------*- C++ -*----------------------------------*\
| =========                 |                                                 |
| \\      /  F ield         | foam-extend: Open Source CFD                    |
|  \\    /   O peration     | Version:     4.1                                |
|   \\  /    A nd           | Web:         http://www.foam-extend.org         |
|    \\/     M anipulation  |                                                 |
\*---------------------------------------------------------------------------*/
FoamFile
{
    version     2.0;
    format      ascii;
    class       volVectorField;
    location    "0";
    object      refW;
}
// * * * * * * * * * * * * * * * * * * * * * * * * * * * * * * * * * * * * * //

dimensions      [0 1 0 0 0 0 0];

internalField   nonuniform List<vector> 10((-0.00100924 0.0770966 0) (-0.0272328 0.693156 0) (-0.125922 1.92148 0) (-0.344892 3.75449 0) (-0.731213 6.18088 0) (-1.33093 9.1857 0) (-2.18876 12.7504 0) (-3.34785 16.8531 0) (-4.84946 21.4684 0) (-6.73277 26.5678 0));

boundaryField
{
    left
    {
        type            calculated;
        value           uniform (0 0 0);
    }
    right
    {
        type            calculated;
        value           uniform (-7.82916 29.2894 0);
    }
    beam
    {
        type            empty;
    }
}


// ************************************************************************* //
