/*--------------------------------*- C++ -*----------------------------------*\
| =========                 |                                                 |
| \\      /  F ield         | foam-extend: Open Source CFD                    |
|  \\    /   O peration     | Version:     4.1                                |
|   \\  /    A nd           | Web:         http://www.foam-extend.org         |
|    \\/     M anipulation  |                                                 |
\*---------------------------------------------------------------------------*/
FoamFile
{
    version     2.0;
    format      ascii;
    class       pointVectorField;
    location    "0";
    object      pointW;
}
// * * * * * * * * * * * * * * * * * * * * * * * * * * * * * * * * * * * * * //

dimensions      [0 1 0 0 0 0 0];

internalField   nonuniform List<vector> 
1344
(
(0 0 0)
(0 0 0)
(0 0 0)
(0 0 0)
(0 0 0)
(0 0 0)
(0 0 0)
(0 0 0)
(0 0 0)
(0 0 0)
(0 0 0)
(0 0 0)
(0 0 0)
(0 0 0)
(0 0 0)
(0 0 0)
(0 0 0)
(0 0 0)
(0 0 0)
(0 0 0)
(0 0 0)
(0 0 0)
(0 0 0)
(0 0 0)
(0 0 0)
(0 0 0)
(0 0 0)
(0 0 0)
(0 0 0)
(0 0 0)
(0 0 0)
(0 0 0)
(0 0 0)
(0 0 0)
(0 0 0)
(0 0 0)
(0 0 0)
(0 0 0)
(0 0 0)
(0 0 0)
(0 0 0)
(0 0 0)
(0 0 0)
(0 0 0)
(0 0 0)
(0 0 0)
(0 0 0)
(0 0 0)
(0 0 0)
(0 0 0)
(0 0 0)
(0 0 0)
(0 0 0)
(0 0 0)
(0 0 0)
(0 0 0)
(0 0 0)
(0 0 0)
(0 0 0)
(0 0 0)
(0 0 0)
(0 0 0)
(0 0 0)
(0 0 0)
(0 0 0)
(0 0 0)
(0 0 0)
(0 0 0)
(0 0 0)
(0 0 0)
(0 0 0)
(0 0 0)
(0 0 0)
(0 0 0)
(0 0 0)
(0 0 0)
(0 0 0)
(0 0 0)
(0 0 0)
(0 0 0)
(0 0 0)
(0 0 0)
(0 0 0)
(0 0 0)
(0 0 0)
(0 0 0)
(0 0 0)
(0 0 0)
(0 0 0)
(0 0 0)
(0 0 0)
(0 0 0)
(0 0 0)
(0 0 0)
(0 0 0)
(0 0 0)
(0 0 0)
(0 0 0)
(0 0 0)
(0 0 0)
(0 0 0)
(0 0 0)
(0 0 0)
(0 0 0)
(0 0 0)
(0 0 0)
(0 0 0)
(0 0 0)
(0 0 0)
(0 0 0)
(0 0 0)
(0 0 0)
(0 0 0)
(0 0 0)
(0 0 0)
(0 0 0)
(0 0 0)
(0 0 0)
(0 0 0)
(0 0 0)
(0 0 0)
(0 0 0)
(0 0 0)
(0 0 0)
(0 0 0)
(0 0 0)
(0 0 0)
(0 0 0)
(0 0 0)
(0 0 0)
(0 0 0)
(0 0 0)
(0 0 0)
(0 0 0)
(0 0 0)
(0 0 0)
(0 0 0)
(0 0 0)
(0 0 0)
(0 0 0)
(0 0 0)
(0 0 0)
(0 0 0)
(0 0 0)
(0 0 0)
(0 0 0)
(0 0 0)
(0 0 0)
(0 0 0)
(0 0 0)
(0 0 0)
(0 0 0)
(0 0 0)
(0 0 0)
(0 0 0)
(0 0 0)
(0 0 0)
(0 0 0)
(0 0 0)
(0 0 0)
(0 0 0)
(0 0 0)
(0 0 0)
(0 0 0)
(0 0 0)
(0 0 0)
(0 0 0)
(0 0 0)
(0 0 0)
(0 0 0)
(0 0 0)
(0 0 0)
(0 0 0)
(0 0 0)
(0 0 0)
(0 0 0)
(0 0 0)
(0 0 0)
(0 0 0)
(0 0 0)
(0 0 0)
(0 0 0)
(0 0 0)
(0 0 0)
(0 0 0)
(0 0 0)
(0 0 0)
(0 0 0)
(0 0 0)
(0 0 0)
(0 0 0)
(0 0 0)
(0 0 0)
(0 0 0)
(0 0 0)
(0 0 0)
(0 0 0)
(0 0 0)
(0 0 0)
(0 0 0)
(0 0 0)
(0 0 0)
(0 0 0)
(0 0 0)
(0 0 0)
(0 0 0)
(0 0 0)
(0 0 0)
(0 0 0)
(0 0 0)
(0 0 0)
(0 0 0)
(0 0 0)
(0 0 0)
(0 0 0)
(0 0 0)
(0 0 0)
(0 0 0)
(0 0 0)
(0 0 0)
(0 0 0)
(0 0 0)
(0 0 0)
(0 0 0)
(0 0 0)
(0 0 0)
(0 0 0)
(0 0 0)
(0 0 0)
(0 0 0)
(0 0 0)
(0 0 0)
(0 0 0)
(0 0 0)
(0 0 0)
(0 0 0)
(0 0 0)
(0 0 0)
(0 0 0)
(0 0 0)
(0 0 0)
(0 0 0)
(0 0 0)
(0 0 0)
(0 0 0)
(0 0 0)
(0 0 0)
(0 0 0)
(0 0 0)
(0 0 0)
(0 0 0)
(0 0 0)
(0 0 0)
(0 0 0)
(0 0 0)
(0 0 0)
(0 0 0)
(0 0 0)
(0 0 0)
(0 0 0)
(0 0 0)
(0 0 0)
(0 0 0)
(0 0 0)
(0 0 0)
(0 0 0)
(0 0 0)
(0 0 0)
(0 0 0)
(0 0 0)
(0 0 0)
(0 0 0)
(0 0 0)
(0 0 0)
(0 0 0)
(0 0 0)
(0 0 0)
(0 0 0)
(0 0 0)
(0 0 0)
(0 0 0)
(0 0 0)
(0 0 0)
(0 0 0)
(0 0 0)
(0 0 0)
(0 0 0)
(0 0 0)
(0 0 0)
(0 0 0)
(0 0 0)
(0 0 0)
(0 0 0)
(0 0 0)
(0 0 0)
(0 0 0)
(0 0 0)
(0 0 0)
(0 0 0)
(0 0 0)
(0 0 0)
(0 0 0)
(0 0 0)
(0 0 0)
(0 0 0)
(0 0 0)
(0 0 0)
(0 0 0)
(0 0 0)
(0 0 0)
(0 0 0)
(0 0 0)
(0 0 0)
(0 0 0)
(0 0 0)
(0 0 0)
(0 0 0)
(0 0 0)
(0 0 0)
(0 0 0)
(0 0 0)
(0 0 0)
(0 0 0)
(0 0 0)
(0 0 0)
(0 0 0)
(0 0 0)
(0 0 0)
(0 0 0)
(0 0 0)
(0 0 0)
(0 0 0)
(0 0 0)
(0 0 0)
(0 0 0)
(0 0 0)
(0 0 0)
(0 0 0)
(0 0 0)
(0 0 0)
(0 0 0)
(0 0 0)
(0 0 0)
(0 0 0)
(0 0 0)
(0 0 0)
(0 0 0)
(0 0 0)
(0 0 0)
(0 0 0)
(0 0 0)
(0 0 0)
(0 0 0)
(0 0 0)
(0 0 0)
(0 0 0)
(0 0 0)
(0 0 0)
(0 0 0)
(0 0 0)
(0 0 0)
(0 0 0)
(0 0 0)
(0 0 0)
(0 0 0)
(0 0 0)
(0 0 0)
(0 0 0)
(0 0 0)
(0 0 0)
(0 0 0)
(0 0 0)
(0 0 0)
(0 0 0)
(0 0 0)
(0 0 0)
(0 0 0)
(0 0 0)
(0 0 0)
(0 0 0)
(0 0 0)
(0 0 0)
(0 0 0)
(0 0 0)
(0 0 0)
(0 0 0)
(0 0 0)
(0 0 0)
(0 0 0)
(0 0 0)
(0 0 0)
(0 0 0)
(0 0 0)
(0 0 0)
(0 0 0)
(0 0 0)
(0 0 0)
(0 0 0)
(0 0 0)
(0 0 0)
(0 0 0)
(0 0 0)
(0 0 0)
(0 0 0)
(0 0 0)
(0 0 0)
(0 0 0)
(0 0 0)
(0 0 0)
(0 0 0)
(0 0 0)
(0 0 0)
(0 0 0)
(0 0 0)
(0 0 0)
(0 0 0)
(0 0 0)
(0 0 0)
(0 0 0)
(0 0 0)
(0 0 0)
(0 0 0)
(0 0 0)
(0 0 0)
(0 0 0)
(0 0 0)
(0 0 0)
(0 0 0)
(0 0 0)
(0 0 0)
(0 0 0)
(0 0 0)
(0 0 0)
(0 0 0)
(0 0 0)
(0 0 0)
(0 0 0)
(0 0 0)
(0 0 0)
(0 0 0)
(0 0 0)
(0 0 0)
(0 0 0)
(0 0 0)
(0 0 0)
(0 0 0)
(0 0 0)
(0 0 0)
(0 0 0)
(0 0 0)
(0 0 0)
(0 0 0)
(0 0 0)
(0 0 0)
(0 0 0)
(0 0 0)
(0 0 0)
(0 0 0)
(0 0 0)
(0 0 0)
(0 0 0)
(0 0 0)
(0 0 0)
(0 0 0)
(0 0 0)
(0 0 0)
(0 0 0)
(0 0 0)
(0 0 0)
(0 0 0)
(0 0 0)
(0 0 0)
(0 0 0)
(0 0 0)
(0 0 0)
(0 0 0)
(0 0 0)
(0 0 0)
(0 0 0)
(0 0 0)
(0 0 0)
(0 0 0)
(0 0 0)
(0 0 0)
(0 0 0)
(0 0 0)
(0 0 0)
(0 0 0)
(0 0 0)
(0 0 0)
(0 0 0)
(0 0 0)
(0 0 0)
(0 0 0)
(0 0 0)
(0 0 0)
(0 0 0)
(0 0 0)
(0 0 0)
(0 0 0)
(0 0 0)
(0 0 0)
(0 0 0)
(0 0 0)
(0 0 0)
(0 0 0)
(0 0 0)
(0 0 0)
(0 0 0)
(0 0 0)
(0 0 0)
(0 0 0)
(0 0 0)
(0 0 0)
(0 0 0)
(0 0 0)
(0 0 0)
(0 0 0)
(0 0 0)
(0 0 0)
(0 0 0)
(0 0 0)
(0 0 0)
(0 0 0)
(0 0 0)
(0 0 0)
(0 0 0)
(0 0 0)
(0 0 0)
(0 0 0)
(0 0 0)
(0 0 0)
(0 0 0)
(0 0 0)
(0 0 0)
(0 0 0)
(0 0 0)
(0 0 0)
(0 0 0)
(0 0 0)
(0 0 0)
(0 0 0)
(0 0 0)
(0 0 0)
(0 0 0)
(0 0 0)
(0 0 0)
(0 0 0)
(0 0 0)
(0 0 0)
(0 0 0)
(0 0 0)
(0 0 0)
(0 0 0)
(0 0 0)
(0 0 0)
(0 0 0)
(0 0 0)
(0 0 0)
(0 0 0)
(0 0 0)
(0 0 0)
(0 0 0)
(0 0 0)
(0 0 0)
(0 0 0)
(0 0 0)
(0 0 0)
(0 0 0)
(0 0 0)
(0 0 0)
(0 0 0)
(0 0 0)
(0 0 0)
(0 0 0)
(0 0 0)
(0 0 0)
(0 0 0)
(0 0 0)
(0 0 0)
(0 0 0)
(0 0 0)
(0 0 0)
(0 0 0)
(0 0 0)
(0 0 0)
(0 0 0)
(0 0 0)
(0 0 0)
(0 0 0)
(0 0 0)
(0 0 0)
(0 9.62965e-35 0)
(0 0 0)
(0 0 0)
(0 0 0)
(0 0 0)
(0 0 0)
(0 0 0)
(0 0 0)
(0 0 0)
(0 0 0)
(0 0 0)
(0 0 0)
(0 0 0)
(0 0 0)
(0 0 0)
(0 0 0)
(0 0 0)
(0 0 0)
(0 0 0)
(0 0 0)
(0 0 0)
(0 0 0)
(0 0 0)
(0 0 0)
(0 0 0)
(0 0 0)
(0 0 0)
(0 0 0)
(0 0 0)
(0 0 0)
(0 0 0)
(0 0 0)
(0 0 0)
(0 0 0)
(0 0 0)
(0 0 0)
(0 0 0)
(0 0 0)
(0 0 0)
(0 0 0)
(0 0 0)
(0 0 0)
(0 0 0)
(0 0 0)
(0 0 0)
(0 0 0)
(0 0 0)
(0 0 0)
(0 0 0)
(0 0 0)
(0 0 0)
(0 0 0)
(0 0 0)
(0 0 0)
(0 0 0)
(0 0 0)
(0 0 0)
(0 0 0)
(0 0 0)
(0 0 0)
(0 0 0)
(0 0 0)
(0 0 0)
(0 0 0)
(0 0 0)
(0 0 0)
(0 0 0)
(0 0 0)
(0 0 0)
(0 0 0)
(0 0 0)
(0 0 0)
(0 0 0)
(0 0 0)
(0 0 0)
(0 0 0)
(0 0 0)
(0 0 0)
(0 0 0)
(0 0 0)
(-0.0012941 0.01 0.0501704)
(-0.00126923 0.01 0.0501671)
(-0.00119559 0.01 0.0501574)
(-0.001076 0.01 0.0501417)
(-0.000915062 0.01 0.0501205)
(-0.00071896 0.01 0.0500947)
(-0.00049523 0.01 0.0500652)
(-0.000252466 0.01 0.0500332)
(-1.08504e-19 0.01 0.05)
(0.000252466 0.01 0.0499668)
(0.00049523 0.01 0.0499348)
(0.00071896 0.01 0.0499053)
(0.000915062 0.01 0.0498795)
(0.001076 0.01 0.0498583)
(0.00119559 0.01 0.0498426)
(0.00126923 0.01 0.0498329)
(0.0012941 0.01 0.0498296)
(0.00126923 0.01 0.0498329)
(0.00119559 0.01 0.0498426)
(0.001076 0.01 0.0498583)
(0.000915062 0.01 0.0498795)
(0.00071896 0.01 0.0499053)
(0.00049523 0.01 0.0499348)
(0.000252466 0.01 0.0499668)
(2.08458e-19 0.01 0.05)
(-0.000252466 0.01 0.0500332)
(-0.00049523 0.01 0.0500652)
(-0.00071896 0.01 0.0500947)
(-0.000915062 0.01 0.0501205)
(-0.001076 0.01 0.0501417)
(-0.00119559 0.01 0.0501574)
(-0.00126923 0.01 0.0501671)
(-0.00214595 0.01 0.0436999)
(-0.00212108 0.01 0.0436966)
(-0.00204744 0.01 0.0436869)
(-0.00192786 0.01 0.0436712)
(-0.00176692 0.01 0.04365)
(-0.00157081 0.01 0.0436242)
(-0.00134708 0.01 0.0435947)
(-0.00110432 0.01 0.0435628)
(-0.000851854 0.01 0.0435295)
(-0.000599389 0.01 0.0434963)
(-0.000356625 0.01 0.0434643)
(-0.000132894 0.01 0.0434349)
(6.32082e-05 0.01 0.0434091)
(0.000224147 0.01 0.0433879)
(0.000343734 0.01 0.0433721)
(0.000417376 0.01 0.0433624)
(0.000442241 0.01 0.0433592)
(0.000417376 0.01 0.0433624)
(0.000343734 0.01 0.0433721)
(0.000224147 0.01 0.0433879)
(6.32082e-05 0.01 0.0434091)
(-0.000132894 0.01 0.0434349)
(-0.000356625 0.01 0.0434643)
(-0.000599389 0.01 0.0434963)
(-0.000851854 0.01 0.0435295)
(-0.00110432 0.01 0.0435628)
(-0.00134708 0.01 0.0435947)
(-0.00157081 0.01 0.0436242)
(-0.00176692 0.01 0.04365)
(-0.00192786 0.01 0.0436712)
(-0.00204744 0.01 0.0436869)
(-0.00212108 0.01 0.0436966)
(-0.0029978 0.01 0.0372294)
(-0.00297294 0.01 0.0372261)
(-0.0028993 0.01 0.0372164)
(-0.00277971 0.01 0.0372007)
(-0.00261877 0.01 0.0371795)
(-0.00242267 0.01 0.0371537)
(-0.00219894 0.01 0.0371242)
(-0.00195617 0.01 0.0370923)
(-0.00170371 0.01 0.037059)
(-0.00145124 0.01 0.0370258)
(-0.00120848 0.01 0.0369938)
(-0.000984748 0.01 0.0369644)
(-0.000788646 0.01 0.0369386)
(-0.000627707 0.01 0.0369174)
(-0.00050812 0.01 0.0369016)
(-0.000434478 0.01 0.036892)
(-0.000409613 0.01 0.0368887)
(-0.000434478 0.01 0.036892)
(-0.00050812 0.01 0.0369016)
(-0.000627707 0.01 0.0369174)
(-0.000788646 0.01 0.0369386)
(-0.000984748 0.01 0.0369644)
(-0.00120848 0.01 0.0369938)
(-0.00145124 0.01 0.0370258)
(-0.00170371 0.01 0.037059)
(-0.00195617 0.01 0.0370923)
(-0.00219894 0.01 0.0371242)
(-0.00242267 0.01 0.0371537)
(-0.00261877 0.01 0.0371795)
(-0.00277971 0.01 0.0372007)
(-0.0028993 0.01 0.0372164)
(-0.00297294 0.01 0.0372261)
(-0.00384966 0.01 0.0307589)
(-0.00382479 0.01 0.0307557)
(-0.00375115 0.01 0.030746)
(-0.00363156 0.01 0.0307302)
(-0.00347063 0.01 0.030709)
(-0.00327452 0.01 0.0306832)
(-0.00305079 0.01 0.0306538)
(-0.00280803 0.01 0.0306218)
(-0.00255556 0.01 0.0305886)
(-0.0023031 0.01 0.0305553)
(-0.00206033 0.01 0.0305234)
(-0.0018366 0.01 0.0304939)
(-0.0016405 0.01 0.0304681)
(-0.00147956 0.01 0.0304469)
(-0.00135997 0.01 0.0304312)
(-0.00128633 0.01 0.0304215)
(-0.00126147 0.01 0.0304182)
(-0.00128633 0.01 0.0304215)
(-0.00135997 0.01 0.0304312)
(-0.00147956 0.01 0.0304469)
(-0.0016405 0.01 0.0304681)
(-0.0018366 0.01 0.0304939)
(-0.00206033 0.01 0.0305234)
(-0.0023031 0.01 0.0305553)
(-0.00255556 0.01 0.0305886)
(-0.00280803 0.01 0.0306218)
(-0.00305079 0.01 0.0306538)
(-0.00327452 0.01 0.0306832)
(-0.00347063 0.01 0.030709)
(-0.00363156 0.01 0.0307302)
(-0.00375115 0.01 0.030746)
(-0.00382479 0.01 0.0307557)
(-0.00470151 0.01 0.0242885)
(-0.00467665 0.01 0.0242852)
(-0.00460301 0.01 0.0242755)
(-0.00448342 0.01 0.0242598)
(-0.00432248 0.01 0.0242386)
(-0.00412638 0.01 0.0242127)
(-0.00390265 0.01 0.0241833)
(-0.00365988 0.01 0.0241513)
(-0.00340742 0.01 0.0241181)
(-0.00315495 0.01 0.0240849)
(-0.00291219 0.01 0.0240529)
(-0.00268846 0.01 0.0240234)
(-0.00249235 0.01 0.0239976)
(-0.00233142 0.01 0.0239764)
(-0.00221183 0.01 0.0239607)
(-0.00213819 0.01 0.023951)
(-0.00211332 0.01 0.0239477)
(-0.00213819 0.01 0.023951)
(-0.00221183 0.01 0.0239607)
(-0.00233142 0.01 0.0239764)
(-0.00249235 0.01 0.0239976)
(-0.00268846 0.01 0.0240234)
(-0.00291219 0.01 0.0240529)
(-0.00315495 0.01 0.0240849)
(-0.00340742 0.01 0.0241181)
(-0.00365988 0.01 0.0241513)
(-0.00390265 0.01 0.0241833)
(-0.00412638 0.01 0.0242127)
(-0.00432248 0.01 0.0242386)
(-0.00448342 0.01 0.0242598)
(-0.00460301 0.01 0.0242755)
(-0.00467665 0.01 0.0242852)
(-0.00555337 0.01 0.017818)
(-0.0055285 0.01 0.0178147)
(-0.00545486 0.01 0.017805)
(-0.00533527 0.01 0.0177893)
(-0.00517433 0.01 0.0177681)
(-0.00497823 0.01 0.0177423)
(-0.0047545 0.01 0.0177128)
(-0.00451174 0.01 0.0176809)
(-0.00425927 0.01 0.0176476)
(-0.00400681 0.01 0.0176144)
(-0.00376404 0.01 0.0175824)
(-0.00354031 0.01 0.017553)
(-0.00334421 0.01 0.0175271)
(-0.00318327 0.01 0.017506)
(-0.00306368 0.01 0.0174902)
(-0.00299004 0.01 0.0174805)
(-0.00296518 0.01 0.0174772)
(-0.00299004 0.01 0.0174805)
(-0.00306368 0.01 0.0174902)
(-0.00318327 0.01 0.017506)
(-0.00334421 0.01 0.0175271)
(-0.00354031 0.01 0.017553)
(-0.00376404 0.01 0.0175824)
(-0.00400681 0.01 0.0176144)
(-0.00425927 0.01 0.0176476)
(-0.00451174 0.01 0.0176809)
(-0.0047545 0.01 0.0177128)
(-0.00497823 0.01 0.0177423)
(-0.00517433 0.01 0.0177681)
(-0.00533527 0.01 0.0177893)
(-0.00545486 0.01 0.017805)
(-0.0055285 0.01 0.0178147)
(-0.00640522 0.01 0.0113475)
(-0.00638036 0.01 0.0113442)
(-0.00630671 0.01 0.0113345)
(-0.00618713 0.01 0.0113188)
(-0.00602619 0.01 0.0112976)
(-0.00583009 0.01 0.0112718)
(-0.00560636 0.01 0.0112423)
(-0.00536359 0.01 0.0112104)
(-0.00511113 0.01 0.0111771)
(-0.00485866 0.01 0.0111439)
(-0.0046159 0.01 0.0111119)
(-0.00439217 0.01 0.0110825)
(-0.00419606 0.01 0.0110567)
(-0.00403512 0.01 0.0110355)
(-0.00391554 0.01 0.0110197)
(-0.0038419 0.01 0.01101)
(-0.00381703 0.01 0.0110068)
(-0.0038419 0.01 0.01101)
(-0.00391554 0.01 0.0110197)
(-0.00403512 0.01 0.0110355)
(-0.00419606 0.01 0.0110567)
(-0.00439217 0.01 0.0110825)
(-0.0046159 0.01 0.0111119)
(-0.00485866 0.01 0.0111439)
(-0.00511113 0.01 0.0111771)
(-0.00536359 0.01 0.0112104)
(-0.00560636 0.01 0.0112423)
(-0.00583009 0.01 0.0112718)
(-0.00602619 0.01 0.0112976)
(-0.00618713 0.01 0.0113188)
(-0.00630671 0.01 0.0113345)
(-0.00638036 0.01 0.0113442)
(-0.00725708 0.01 0.00487704)
(-0.00723221 0.01 0.00487376)
(-0.00715857 0.01 0.00486407)
(-0.00703898 0.01 0.00484833)
(-0.00687804 0.01 0.00482714)
(-0.00668194 0.01 0.00480132)
(-0.00645821 0.01 0.00477187)
(-0.00621545 0.01 0.0047399)
(-0.00596298 0.01 0.00470667)
(-0.00571051 0.01 0.00467343)
(-0.00546775 0.01 0.00464147)
(-0.00524402 0.01 0.00461201)
(-0.00504792 0.01 0.0045862)
(-0.00488698 0.01 0.00456501)
(-0.00476739 0.01 0.00454926)
(-0.00469375 0.01 0.00453957)
(-0.00466889 0.01 0.0045363)
(-0.00469375 0.01 0.00453957)
(-0.00476739 0.01 0.00454926)
(-0.00488698 0.01 0.00456501)
(-0.00504792 0.01 0.0045862)
(-0.00524402 0.01 0.00461201)
(-0.00546775 0.01 0.00464147)
(-0.00571051 0.01 0.00467343)
(-0.00596298 0.01 0.00470667)
(-0.00621545 0.01 0.0047399)
(-0.00645821 0.01 0.00477187)
(-0.00668194 0.01 0.00480132)
(-0.00687804 0.01 0.00482714)
(-0.00703898 0.01 0.00484833)
(-0.00715857 0.01 0.00486407)
(-0.00723221 0.01 0.00487376)
(-0.00810893 0.01 -0.00159344)
(-0.00808407 0.01 -0.00159671)
(-0.00801042 0.01 -0.00160641)
(-0.00789084 0.01 -0.00162215)
(-0.0077299 0.01 -0.00164334)
(-0.0075338 0.01 -0.00166916)
(-0.00731006 0.01 -0.00169861)
(-0.0070673 0.01 -0.00173057)
(-0.00681483 0.01 -0.00176381)
(-0.00656237 0.01 -0.00179705)
(-0.00631961 0.01 -0.00182901)
(-0.00609587 0.01 -0.00185846)
(-0.00589977 0.01 -0.00188428)
(-0.00573883 0.01 -0.00190547)
(-0.00561925 0.01 -0.00192121)
(-0.0055456 0.01 -0.00193091)
(-0.00552074 0.01 -0.00193418)
(-0.0055456 0.01 -0.00193091)
(-0.00561925 0.01 -0.00192121)
(-0.00573883 0.01 -0.00190547)
(-0.00589977 0.01 -0.00188428)
(-0.00609587 0.01 -0.00185846)
(-0.00631961 0.01 -0.00182901)
(-0.00656237 0.01 -0.00179705)
(-0.00681483 0.01 -0.00176381)
(-0.0070673 0.01 -0.00173057)
(-0.00731006 0.01 -0.00169861)
(-0.0075338 0.01 -0.00166916)
(-0.0077299 0.01 -0.00164334)
(-0.00789084 0.01 -0.00162215)
(-0.00801042 0.01 -0.00160641)
(-0.00808407 0.01 -0.00159671)
(-0.00896078 0.01 -0.00806391)
(-0.00893592 0.01 -0.00806719)
(-0.00886228 0.01 -0.00807688)
(-0.00874269 0.01 -0.00809263)
(-0.00858175 0.01 -0.00811381)
(-0.00838565 0.01 -0.00813963)
(-0.00816192 0.01 -0.00816909)
(-0.00791915 0.01 -0.00820105)
(-0.00766669 0.01 -0.00823429)
(-0.00741422 0.01 -0.00826752)
(-0.00717146 0.01 -0.00829948)
(-0.00694773 0.01 -0.00832894)
(-0.00675163 0.01 -0.00835476)
(-0.00659069 0.01 -0.00837594)
(-0.0064711 0.01 -0.00839169)
(-0.00639746 0.01 -0.00840138)
(-0.00637259 0.01 -0.00840466)
(-0.00639746 0.01 -0.00840138)
(-0.0064711 0.01 -0.00839169)
(-0.00659069 0.01 -0.00837594)
(-0.00675163 0.01 -0.00835476)
(-0.00694773 0.01 -0.00832894)
(-0.00717146 0.01 -0.00829948)
(-0.00741422 0.01 -0.00826752)
(-0.00766669 0.01 -0.00823429)
(-0.00791915 0.01 -0.00820105)
(-0.00816192 0.01 -0.00816909)
(-0.00838565 0.01 -0.00813963)
(-0.00858175 0.01 -0.00811381)
(-0.00874269 0.01 -0.00809263)
(-0.00886228 0.01 -0.00807688)
(-0.00893592 0.01 -0.00806719)
(-0.00981264 0.01 -0.0145344)
(-0.00978777 0.01 -0.0145377)
(-0.00971413 0.01 -0.0145474)
(-0.00959454 0.01 -0.0145631)
(-0.00943361 0.01 -0.0145843)
(-0.0092375 0.01 -0.0146101)
(-0.00901377 0.01 -0.0146396)
(-0.00877101 0.01 -0.0146715)
(-0.00851854 0.01 -0.0147048)
(-0.00826608 0.01 -0.014738)
(-0.00802331 0.01 -0.01477)
(-0.00779958 0.01 -0.0147994)
(-0.00760348 0.01 -0.0148252)
(-0.00744254 0.01 -0.0148464)
(-0.00732295 0.01 -0.0148622)
(-0.00724931 0.01 -0.0148719)
(-0.00722445 0.01 -0.0148751)
(-0.00724931 0.01 -0.0148719)
(-0.00732295 0.01 -0.0148622)
(-0.00744254 0.01 -0.0148464)
(-0.00760348 0.01 -0.0148252)
(-0.00779958 0.01 -0.0147994)
(-0.00802331 0.01 -0.01477)
(-0.00826608 0.01 -0.014738)
(-0.00851854 0.01 -0.0147048)
(-0.00877101 0.01 -0.0146715)
(-0.00901377 0.01 -0.0146396)
(-0.0092375 0.01 -0.0146101)
(-0.00943361 0.01 -0.0145843)
(-0.00959454 0.01 -0.0145631)
(-0.00971413 0.01 -0.0145474)
(-0.00978777 0.01 -0.0145377)
(-0.0106645 0.01 -0.0210049)
(-0.0106396 0.01 -0.0210081)
(-0.010566 0.01 -0.0210178)
(-0.0104464 0.01 -0.0210336)
(-0.0102855 0.01 -0.0210548)
(-0.0100894 0.01 -0.0210806)
(-0.00986563 0.01 -0.02111)
(-0.00962286 0.01 -0.021142)
(-0.0093704 0.01 -0.0211752)
(-0.00911793 0.01 -0.0212085)
(-0.00887517 0.01 -0.0212404)
(-0.00865144 0.01 -0.0212699)
(-0.00845534 0.01 -0.0212957)
(-0.0082944 0.01 -0.0213169)
(-0.00817481 0.01 -0.0213326)
(-0.00810117 0.01 -0.0213423)
(-0.0080763 0.01 -0.0213456)
(-0.00810117 0.01 -0.0213423)
(-0.00817481 0.01 -0.0213326)
(-0.0082944 0.01 -0.0213169)
(-0.00845534 0.01 -0.0212957)
(-0.00865144 0.01 -0.0212699)
(-0.00887517 0.01 -0.0212404)
(-0.00911793 0.01 -0.0212085)
(-0.0093704 0.01 -0.0211752)
(-0.00962286 0.01 -0.021142)
(-0.00986563 0.01 -0.02111)
(-0.0100894 0.01 -0.0210806)
(-0.0102855 0.01 -0.0210548)
(-0.0104464 0.01 -0.0210336)
(-0.010566 0.01 -0.0210178)
(-0.0106396 0.01 -0.0210081)
(-0.0115163 0.01 -0.0274753)
(-0.0114915 0.01 -0.0274786)
(-0.0114178 0.01 -0.0274883)
(-0.0112983 0.01 -0.0275041)
(-0.0111373 0.01 -0.0275252)
(-0.0109412 0.01 -0.0275511)
(-0.0107175 0.01 -0.0275805)
(-0.0104747 0.01 -0.0276125)
(-0.0102223 0.01 -0.0276457)
(-0.00996979 0.01 -0.027679)
(-0.00972702 0.01 -0.0277109)
(-0.00950329 0.01 -0.0277404)
(-0.00930719 0.01 -0.0277662)
(-0.00914625 0.01 -0.0277874)
(-0.00902666 0.01 -0.0278031)
(-0.00895302 0.01 -0.0278128)
(-0.00892816 0.01 -0.0278161)
(-0.00895302 0.01 -0.0278128)
(-0.00902666 0.01 -0.0278031)
(-0.00914625 0.01 -0.0277874)
(-0.00930719 0.01 -0.0277662)
(-0.00950329 0.01 -0.0277404)
(-0.00972702 0.01 -0.0277109)
(-0.00996979 0.01 -0.027679)
(-0.0102223 0.01 -0.0276457)
(-0.0104747 0.01 -0.0276125)
(-0.0107175 0.01 -0.0275805)
(-0.0109412 0.01 -0.0275511)
(-0.0111373 0.01 -0.0275252)
(-0.0112983 0.01 -0.0275041)
(-0.0114178 0.01 -0.0274883)
(-0.0114915 0.01 -0.0274786)
(-0.0123682 0.01 -0.0339458)
(-0.0123433 0.01 -0.0339491)
(-0.0122697 0.01 -0.0339588)
(-0.0121501 0.01 -0.0339745)
(-0.0119892 0.01 -0.0339957)
(-0.0117931 0.01 -0.0340215)
(-0.0115693 0.01 -0.034051)
(-0.0113266 0.01 -0.034083)
(-0.0110741 0.01 -0.0341162)
(-0.0108216 0.01 -0.0341494)
(-0.0105789 0.01 -0.0341814)
(-0.0103551 0.01 -0.0342108)
(-0.010159 0.01 -0.0342367)
(-0.00999811 0.01 -0.0342578)
(-0.00987852 0.01 -0.0342736)
(-0.00980488 0.01 -0.0342833)
(-0.00978001 0.01 -0.0342866)
(-0.00980488 0.01 -0.0342833)
(-0.00987852 0.01 -0.0342736)
(-0.00999811 0.01 -0.0342578)
(-0.010159 0.01 -0.0342367)
(-0.0103551 0.01 -0.0342108)
(-0.0105789 0.01 -0.0341814)
(-0.0108216 0.01 -0.0341494)
(-0.0110741 0.01 -0.0341162)
(-0.0113266 0.01 -0.034083)
(-0.0115693 0.01 -0.034051)
(-0.0117931 0.01 -0.0340215)
(-0.0119892 0.01 -0.0339957)
(-0.0121501 0.01 -0.0339745)
(-0.0122697 0.01 -0.0339588)
(-0.0123433 0.01 -0.0339491)
(-0.0132201 0.01 -0.0404163)
(-0.0131952 0.01 -0.0404196)
(-0.0131215 0.01 -0.0404293)
(-0.013002 0.01 -0.040445)
(-0.012841 0.01 -0.0404662)
(-0.0126449 0.01 -0.040492)
(-0.0124212 0.01 -0.0405215)
(-0.0121784 0.01 -0.0405534)
(-0.011926 0.01 -0.0405867)
(-0.0116735 0.01 -0.0406199)
(-0.0114307 0.01 -0.0406519)
(-0.011207 0.01 -0.0406813)
(-0.0110109 0.01 -0.0407071)
(-0.01085 0.01 -0.0407283)
(-0.0107304 0.01 -0.0407441)
(-0.0106567 0.01 -0.0407538)
(-0.0106319 0.01 -0.040757)
(-0.0106567 0.01 -0.0407538)
(-0.0107304 0.01 -0.0407441)
(-0.01085 0.01 -0.0407283)
(-0.0110109 0.01 -0.0407071)
(-0.011207 0.01 -0.0406813)
(-0.0114307 0.01 -0.0406519)
(-0.0116735 0.01 -0.0406199)
(-0.011926 0.01 -0.0405867)
(-0.0121784 0.01 -0.0405534)
(-0.0124212 0.01 -0.0405215)
(-0.0126449 0.01 -0.040492)
(-0.012841 0.01 -0.0404662)
(-0.013002 0.01 -0.040445)
(-0.0131215 0.01 -0.0404293)
(-0.0131952 0.01 -0.0404196)
(-0.0140719 0.01 -0.0468868)
(-0.014047 0.01 -0.04689)
(-0.0139734 0.01 -0.0468997)
(-0.0138538 0.01 -0.0469155)
(-0.0136929 0.01 -0.0469367)
(-0.0134968 0.01 -0.0469625)
(-0.013273 0.01 -0.0469919)
(-0.0130303 0.01 -0.0470239)
(-0.0127778 0.01 -0.0470571)
(-0.0125253 0.01 -0.0470904)
(-0.0122826 0.01 -0.0471223)
(-0.0120589 0.01 -0.0471518)
(-0.0118628 0.01 -0.0471776)
(-0.0117018 0.01 -0.0471988)
(-0.0115822 0.01 -0.0472145)
(-0.0115086 0.01 -0.0472242)
(-0.0114837 0.01 -0.0472275)
(-0.0115086 0.01 -0.0472242)
(-0.0115822 0.01 -0.0472145)
(-0.0117018 0.01 -0.0471988)
(-0.0118628 0.01 -0.0471776)
(-0.0120589 0.01 -0.0471518)
(-0.0122826 0.01 -0.0471223)
(-0.0125253 0.01 -0.0470904)
(-0.0127778 0.01 -0.0470571)
(-0.0130303 0.01 -0.0470239)
(-0.013273 0.01 -0.0469919)
(-0.0134968 0.01 -0.0469625)
(-0.0136929 0.01 -0.0469367)
(-0.0138538 0.01 -0.0469155)
(-0.0139734 0.01 -0.0468997)
(-0.014047 0.01 -0.04689)
(-0.0149238 0.01 -0.0533572)
(-0.0148989 0.01 -0.0533605)
(-0.0148253 0.01 -0.0533702)
(-0.0147057 0.01 -0.053386)
(-0.0145447 0.01 -0.0534071)
(-0.0143486 0.01 -0.053433)
(-0.0141249 0.01 -0.0534624)
(-0.0138821 0.01 -0.0534944)
(-0.0136297 0.01 -0.0535276)
(-0.0133772 0.01 -0.0535609)
(-0.0131344 0.01 -0.0535928)
(-0.0129107 0.01 -0.0536223)
(-0.0127146 0.01 -0.0536481)
(-0.0125537 0.01 -0.0536693)
(-0.0124341 0.01 -0.053685)
(-0.0123604 0.01 -0.0536947)
(-0.0123356 0.01 -0.053698)
(-0.0123604 0.01 -0.0536947)
(-0.0124341 0.01 -0.053685)
(-0.0125537 0.01 -0.0536693)
(-0.0127146 0.01 -0.0536481)
(-0.0129107 0.01 -0.0536223)
(-0.0131344 0.01 -0.0535928)
(-0.0133772 0.01 -0.0535609)
(-0.0136297 0.01 -0.0535276)
(-0.0138821 0.01 -0.0534944)
(-0.0141249 0.01 -0.0534624)
(-0.0143486 0.01 -0.053433)
(-0.0145447 0.01 -0.0534071)
(-0.0147057 0.01 -0.053386)
(-0.0148253 0.01 -0.0533702)
(-0.0148989 0.01 -0.0533605)
(-0.0157756 0.01 -0.0598277)
(-0.0157508 0.01 -0.059831)
(-0.0156771 0.01 -0.0598407)
(-0.0155575 0.01 -0.0598564)
(-0.0153966 0.01 -0.0598776)
(-0.0152005 0.01 -0.0599034)
(-0.0149768 0.01 -0.0599329)
(-0.014734 0.01 -0.0599649)
(-0.0144815 0.01 -0.0599981)
(-0.0142291 0.01 -0.0600313)
(-0.0139863 0.01 -0.0600633)
(-0.0137626 0.01 -0.0600927)
(-0.0135665 0.01 -0.0601186)
(-0.0134055 0.01 -0.0601398)
(-0.0132859 0.01 -0.0601555)
(-0.0132123 0.01 -0.0601652)
(-0.0131874 0.01 -0.0601685)
(-0.0132123 0.01 -0.0601652)
(-0.0132859 0.01 -0.0601555)
(-0.0134055 0.01 -0.0601398)
(-0.0135665 0.01 -0.0601186)
(-0.0137626 0.01 -0.0600927)
(-0.0139863 0.01 -0.0600633)
(-0.0142291 0.01 -0.0600313)
(-0.0144815 0.01 -0.0599981)
(-0.014734 0.01 -0.0599649)
(-0.0149768 0.01 -0.0599329)
(-0.0152005 0.01 -0.0599034)
(-0.0153966 0.01 -0.0598776)
(-0.0155575 0.01 -0.0598564)
(-0.0156771 0.01 -0.0598407)
(-0.0157508 0.01 -0.059831)
(-0.0166275 0.01 -0.0662982)
(-0.0166026 0.01 -0.0663015)
(-0.016529 0.01 -0.0663112)
(-0.0164094 0.01 -0.0663269)
(-0.0162484 0.01 -0.0663481)
(-0.0160523 0.01 -0.0663739)
(-0.0158286 0.01 -0.0664034)
(-0.0155858 0.01 -0.0664353)
(-0.0153334 0.01 -0.0664686)
(-0.0150809 0.01 -0.0665018)
(-0.0148381 0.01 -0.0665338)
(-0.0146144 0.01 -0.0665632)
(-0.0144183 0.01 -0.066589)
(-0.0142574 0.01 -0.0666102)
(-0.0141378 0.01 -0.066626)
(-0.0140641 0.01 -0.0666357)
(-0.0140393 0.01 -0.0666389)
(-0.0140641 0.01 -0.0666357)
(-0.0141378 0.01 -0.066626)
(-0.0142574 0.01 -0.0666102)
(-0.0144183 0.01 -0.066589)
(-0.0146144 0.01 -0.0665632)
(-0.0148381 0.01 -0.0665338)
(-0.0150809 0.01 -0.0665018)
(-0.0153334 0.01 -0.0664686)
(-0.0155858 0.01 -0.0664353)
(-0.0158286 0.01 -0.0664034)
(-0.0160523 0.01 -0.0663739)
(-0.0162484 0.01 -0.0663481)
(-0.0164094 0.01 -0.0663269)
(-0.016529 0.01 -0.0663112)
(-0.0166026 0.01 -0.0663015)
(-0.0174793 0.01 -0.0727687)
(-0.0174545 0.01 -0.0727719)
(-0.0173808 0.01 -0.0727816)
(-0.0172612 0.01 -0.0727974)
(-0.0171003 0.01 -0.0728186)
(-0.0169042 0.01 -0.0728444)
(-0.0166805 0.01 -0.0728738)
(-0.0164377 0.01 -0.0729058)
(-0.0161852 0.01 -0.072939)
(-0.0159328 0.01 -0.0729723)
(-0.01569 0.01 -0.0730042)
(-0.0154663 0.01 -0.0730337)
(-0.0152702 0.01 -0.0730595)
(-0.0151092 0.01 -0.0730807)
(-0.0149896 0.01 -0.0730964)
(-0.014916 0.01 -0.0731061)
(-0.0148911 0.01 -0.0731094)
(-0.014916 0.01 -0.0731061)
(-0.0149896 0.01 -0.0730964)
(-0.0151092 0.01 -0.0730807)
(-0.0152702 0.01 -0.0730595)
(-0.0154663 0.01 -0.0730337)
(-0.01569 0.01 -0.0730042)
(-0.0159328 0.01 -0.0729723)
(-0.0161852 0.01 -0.072939)
(-0.0164377 0.01 -0.0729058)
(-0.0166805 0.01 -0.0728738)
(-0.0169042 0.01 -0.0728444)
(-0.0171003 0.01 -0.0728186)
(-0.0172612 0.01 -0.0727974)
(-0.0173808 0.01 -0.0727816)
(-0.0174545 0.01 -0.0727719)
(-0.0183312 0.01 -0.0792392)
(-0.0183063 0.01 -0.0792424)
(-0.0182327 0.01 -0.0792521)
(-0.0181131 0.01 -0.0792679)
(-0.0179521 0.01 -0.0792891)
(-0.017756 0.01 -0.0793149)
(-0.0175323 0.01 -0.0793443)
(-0.0172896 0.01 -0.0793763)
(-0.0170371 0.01 -0.0794095)
(-0.0167846 0.01 -0.0794428)
(-0.0165419 0.01 -0.0794747)
(-0.0163181 0.01 -0.0795042)
(-0.016122 0.01 -0.07953)
(-0.0159611 0.01 -0.0795512)
(-0.0158415 0.01 -0.0795669)
(-0.0157679 0.01 -0.0795766)
(-0.015743 0.01 -0.0795799)
(-0.0157679 0.01 -0.0795766)
(-0.0158415 0.01 -0.0795669)
(-0.0159611 0.01 -0.0795512)
(-0.016122 0.01 -0.07953)
(-0.0163181 0.01 -0.0795042)
(-0.0165419 0.01 -0.0794747)
(-0.0167846 0.01 -0.0794428)
(-0.0170371 0.01 -0.0794095)
(-0.0172896 0.01 -0.0793763)
(-0.0175323 0.01 -0.0793443)
(-0.017756 0.01 -0.0793149)
(-0.0179521 0.01 -0.0792891)
(-0.0181131 0.01 -0.0792679)
(-0.0182327 0.01 -0.0792521)
(-0.0183063 0.01 -0.0792424)
)
;

boundaryField
{
    left_0
    {
        type            calculated;
    }
    left_1
    {
        type            calculated;
    }
    right_0
    {
        type            calculated;
    }
    right_1
    {
        type            calculated;
    }
    beam
    {
        type            empty;
    }
}


// ************************************************************************* //
