/*--------------------------------*- C++ -*----------------------------------*\
| =========                 |                                                 |
| \\      /  F ield         | foam-extend: Open Source CFD                    |
|  \\    /   O peration     | Version:     4.1                                |
|   \\  /    A nd           | Web:         http://www.foam-extend.org         |
|    \\/     M anipulation  |                                                 |
\*---------------------------------------------------------------------------*/
FoamFile
{
    version     2.0;
    format      ascii;
    class       volVectorField;
    location    "0";
    object      refW;
}
// * * * * * * * * * * * * * * * * * * * * * * * * * * * * * * * * * * * * * //

dimensions      [0 1 0 0 0 0 0];

internalField   nonuniform List<vector> 
40
(
(0 0 0)
(0 0 0)
(0 0 0)
(0 0 0)
(0 0 0)
(0 0 0)
(0 0 0)
(0 0 0)
(0 0 0)
(0 0 0)
(0 0 0)
(0 0 0)
(0 0 0)
(0 0 0)
(0 0 0)
(0 0 0)
(0 0 0)
(0 0 0)
(0 0 0)
(0 0 0)
(-0.000425927 0.01 0.0467648)
(-0.00127778 0.01 0.0402943)
(-0.00212964 0.01 0.0338238)
(-0.00298149 0.01 0.0273533)
(-0.00383334 0.01 0.0208829)
(-0.0046852 0.01 0.0144124)
(-0.00553705 0.01 0.00794191)
(-0.00638891 0.01 0.00147143)
(-0.00724076 0.01 -0.00499905)
(-0.00809262 0.01 -0.0114695)
(-0.00894447 0.01 -0.01794)
(-0.00979632 0.01 -0.0244105)
(-0.0106482 0.01 -0.030881)
(-0.0115 0.01 -0.0373514)
(-0.0123519 0.01 -0.0438219)
(-0.0132037 0.01 -0.0502924)
(-0.0140556 0.01 -0.0567629)
(-0.0149075 0.01 -0.0632333)
(-0.0157593 0.01 -0.0697038)
(-0.0166112 0.01 -0.0761743)
)
;

boundaryField
{
    left_0
    {
        type            calculated;
        value           uniform (0 0 0);
    }
    left_1
    {
        type            calculated;
        value           uniform (-1.46319e-20 0.01 0.05);
    }
    right_0
    {
        type            calculated;
        value           uniform (0 0 0);
    }
    right_1
    {
        type            calculated;
        value           uniform (-0.0170371 0.01 -0.0794095);
    }
    beam
    {
        type            empty;
    }
}


// ************************************************************************* //
