/*--------------------------------*- C++ -*----------------------------------*\
| =========                 |                                                 |
| \\      /  F ield         | foam-extend: Open Source CFD                    |
|  \\    /   O peration     | Version:     4.1                                |
|   \\  /    A nd           | Web:         http://www.foam-extend.org         |
|    \\/     M anipulation  |                                                 |
\*---------------------------------------------------------------------------*/
FoamFile
{
    version     2.0;
    format      ascii;
    class       surfaceVectorField;
    location    "0";
    object      refWf;
}
// * * * * * * * * * * * * * * * * * * * * * * * * * * * * * * * * * * * * * //

dimensions      [0 1 0 0 0 0 0];

internalField   nonuniform List<vector> 
38
(
(0 0 0)
(0 0 0)
(0 0 0)
(0 0 0)
(0 0 0)
(0 0 0)
(0 0 0)
(0 0 0)
(0 0 0)
(0 0 0)
(0 0 0)
(0 0 0)
(0 0 0)
(0 0 0)
(0 0 0)
(0 0 0)
(0 0 0)
(0 0 0)
(0 0 0)
(-0.000851854 0.01 0.0435295)
(-0.00170371 0.01 0.037059)
(-0.00255556 0.01 0.0305886)
(-0.00340742 0.01 0.0241181)
(-0.00425927 0.01 0.0176476)
(-0.00511113 0.01 0.0111771)
(-0.00596298 0.01 0.00470667)
(-0.00681483 0.01 -0.00176381)
(-0.00766669 0.01 -0.00823429)
(-0.00851854 0.01 -0.0147048)
(-0.0093704 0.01 -0.0211752)
(-0.0102223 0.01 -0.0276457)
(-0.0110741 0.01 -0.0341162)
(-0.011926 0.01 -0.0405867)
(-0.0127778 0.01 -0.0470571)
(-0.0136297 0.01 -0.0535276)
(-0.0144815 0.01 -0.0599981)
(-0.0153334 0.01 -0.0664686)
(-0.0161852 0.01 -0.072939)
)
;

boundaryField
{
    left_0
    {
        type            calculated;
        value           uniform (0 0 0);
    }
    left_1
    {
        type            calculated;
        value           uniform (-1.46319e-20 0.01 0.05);
    }
    right_0
    {
        type            calculated;
        value           uniform (0 0 0);
    }
    right_1
    {
        type            calculated;
        value           uniform (-0.0170371 0.01 -0.0794095);
    }
    beam
    {
        type            empty;
    }
}


// ************************************************************************* //
