/*--------------------------------*- C++ -*----------------------------------*\
| =========                 |                                                 |
| \\      /  F ield         | foam-extend: Open Source CFD                    |
|  \\    /   O peration     | Version:     4.1                                |
|   \\  /    A nd           | Web:         http://www.foam-extend.org         |
|    \\/     M anipulation  |                                                 |
\*---------------------------------------------------------------------------*/
FoamFile
{
    version     2.0;
    format      ascii;
    class       volVectorField;
    location    "0";
    object      refW;
}
// * * * * * * * * * * * * * * * * * * * * * * * * * * * * * * * * * * * * * //

dimensions      [0 1 0 0 0 0 0];

internalField   nonuniform List<vector> 
41
(
(-5.85193 4.39433 0)
(-16.9465 13.335 0)
(-27.2157 22.4157 0)
(-36.6504 31.5604 0)
(-45.2481 40.6927 0)
(-53.0134 49.7362 0)
(-59.9581 58.615 0)
(-66.1005 67.2548 0)
(-71.4658 75.5834 0)
(-76.0858 83.531 0)
(-79.9984 91.0313 0)
(-83.2474 98.0211 0)
(-85.8823 104.442 0)
(-87.9576 110.241 0)
(-89.5326 115.368 0)
(-90.6707 119.781 0)
(-91.4389 123.444 0)
(-91.9076 126.325 0)
(-92.1492 128.4 0)
(-92.2385 129.652 0)
(-92.2513 130.071 0)
(-92.264 129.652 0)
(-92.3533 128.4 0)
(-92.5949 126.325 0)
(-93.0635 123.444 0)
(-93.8318 119.782 0)
(-94.9699 115.368 0)
(-96.5448 110.241 0)
(-98.6201 104.442 0)
(-101.255 98.0211 0)
(-104.504 91.0315 0)
(-108.417 83.5313 0)
(-113.037 75.5835 0)
(-118.402 67.2552 0)
(-124.544 58.6152 0)
(-131.489 49.7363 0)
(-139.254 40.6932 0)
(-147.852 31.5608 0)
(-157.287 22.4158 0)
(-167.555 13.3354 0)
(-178.65 4.39465 0)
)
;

boundaryField
{
    left
    {
        type            calculated;
        value           uniform (0 0 0);
    }
    right
    {
        type            calculated;
        value           uniform (0 0 0);
    }
    beam
    {
        type            empty;
    }
}


// ************************************************************************* //
