/*--------------------------------*- C++ -*----------------------------------*\
| =========                 |                                                 |
| \\      /  F ield         | foam-extend: Open Source CFD                    |
|  \\    /   O peration     | Version:     4.1                                |
|   \\  /    A nd           | Web:         http://www.foam-extend.org         |
|    \\/     M anipulation  |                                                 |
\*---------------------------------------------------------------------------*/
FoamFile
{
    version     2.0;
    format      ascii;
    class       surfaceVectorField;
    location    "0";
    object      refWf;
}
// * * * * * * * * * * * * * * * * * * * * * * * * * * * * * * * * * * * * * //

dimensions      [0 1 0 0 0 0 0];

internalField   nonuniform List<vector> 
40
(
(-11.5015 8.84242 0)
(-22.185 17.8625 0)
(-32.0377 26.9848 0)
(-41.0537 36.1329 0)
(-49.2342 45.2303 0)
(-56.5873 54.2008 0)
(-63.1281 62.9693 0)
(-68.8784 71.4624 0)
(-73.8667 79.609 0)
(-78.1279 87.3411 0)
(-81.703 94.5938 0)
(-84.6383 101.306 0)
(-86.9862 107.422 0)
(-88.8038 112.891 0)
(-90.1522 117.666 0)
(-91.0967 121.708 0)
(-91.7062 124.984 0)
(-92.0521 127.464 0)
(-92.2082 129.13 0)
(-92.2497 129.966 0)
(-92.2528 129.966 0)
(-92.2943 129.13 0)
(-92.4504 127.464 0)
(-92.7963 124.984 0)
(-93.4057 121.709 0)
(-94.3503 117.666 0)
(-95.6987 112.891 0)
(-97.516 107.423 0)
(-99.8642 101.306 0)
(-102.8 94.5938 0)
(-106.374 87.3415 0)
(-110.636 79.609 0)
(-115.624 71.4627 0)
(-121.374 62.9699 0)
(-127.915 54.2008 0)
(-135.268 45.2306 0)
(-143.448 36.1336 0)
(-152.465 26.9848 0)
(-162.317 17.8628 0)
(-173 8.84306 0)
)
;

boundaryField
{
    left
    {
        type            calculated;
        value           uniform (0 0 0);
    }
    right
    {
        type            calculated;
        value           uniform (-184.503 -1.49214e-13 0);
    }
    beam
    {
        type            empty;
    }
}


// ************************************************************************* //
