/*--------------------------------*- C++ -*----------------------------------*\
| =========                 |                                                 |
| \\      /  F ield         | OpenFOAM: The Open Source CFD Toolbox           |
|  \\    /   O peration     | Version:  2312                                  |
|   \\  /    A nd           | Website:  www.openfoam.com                      |
|    \\/     M anipulation  |                                                 |
\*---------------------------------------------------------------------------*/
FoamFile
{
    version     2.0;
    format      ascii;
    arch        "LSB;label=32;scalar=64";
    class       volScalarField;
    location    "0.05";
    object      p;
}
// * * * * * * * * * * * * * * * * * * * * * * * * * * * * * * * * * * * * * //

dimensions      [1 -1 -2 0 0 0 0];

internalField   nonuniform List<scalar> 
299556
(
19.3747526
19.3747578
19.37476305
19.37476834
19.3747737
19.37477915
19.37478472
19.37479042
19.37479628
19.3748023
19.37480852
19.37481495
19.37482162
19.37482854
19.37483573
19.37484321
19.37485099
19.3748591
19.37486755
19.37487636
19.37488553
19.37489509
19.37490504
19.37491539
19.37492615
19.37493732
19.37494889
19.37496088
19.37497328
19.37498607
19.37499924
19.37501277
19.37502664
19.37504083
19.3750553
19.37507001
19.37508491
19.37509997
19.37511511
19.37513029
19.37514543
19.37516046
19.37517531
19.37518989
19.37520411
19.37521789
19.37523114
19.37524376
19.37525565
19.37526673
19.3752769
19.37528607
19.37529416
19.37530108
19.37530677
19.37531115
19.37531416
19.37531577
19.37531592
19.3753146
19.37531177
19.37530744
19.37530161
19.37529428
19.37528549
19.37527528
19.37526367
19.37525072
19.3752365
19.37522105
19.37520446
19.37518679
19.37516811
19.37514851
19.37512805
19.37510681
19.37508487
19.37506229
19.37503914
19.37501549
19.3749914
19.37496693
19.37494212
19.37491703
19.37489171
19.3748662
19.37484053
19.37481475
19.37478889
19.37476297
19.37475776
19.37477333
19.37478899
19.3748048
19.37482083
19.37483713
19.37485377
19.3748708
19.3748883
19.37490631
19.3749249
19.37494412
19.37496404
19.37498472
19.37500621
19.37502856
19.37505183
19.37507607
19.37510132
19.37512764
19.37515507
19.37518363
19.37521336
19.3752443
19.37527645
19.37530983
19.37534444
19.37538027
19.37541732
19.37545554
19.37549491
19.37553536
19.37557683
19.37561924
19.37566248
19.37570645
19.37575102
19.37579602
19.3758413
19.37588667
19.37593194
19.37597688
19.37602127
19.37606485
19.37610738
19.37614859
19.37618819
19.37622592
19.37626148
19.37629461
19.37632501
19.37635244
19.37637662
19.37639733
19.37641433
19.37642744
19.37643646
19.37644127
19.37644174
19.37643777
19.37642933
19.37641638
19.37639894
19.37637704
19.37635077
19.37632022
19.37628551
19.37624681
19.37620428
19.37615811
19.3761085
19.37605567
19.37599984
19.37594123
19.37588006
19.37581657
19.37575097
19.37568347
19.37561428
19.37554358
19.37547157
19.37539841
19.37532426
19.37524928
19.37517359
19.37509733
19.37502061
19.37494354
19.37486623
19.37478877
19.37476287
19.3747887
19.37481469
19.37484093
19.37486752
19.37489457
19.37492218
19.37495044
19.37497947
19.37500935
19.3750402
19.3750721
19.37510515
19.37513946
19.37517511
19.3752122
19.37525081
19.37529103
19.37533294
19.37537662
19.37542212
19.37546952
19.37551886
19.37557019
19.37562355
19.37567894
19.37573637
19.37579584
19.37585731
19.37592075
19.37598608
19.37605321
19.37612204
19.37619242
19.37626419
19.37633717
19.37641113
19.37648583
19.37656099
19.3766363
19.37671144
19.37678604
19.37685972
19.37693207
19.37700267
19.37707108
19.37713683
19.37719946
19.37725851
19.3773135
19.37736399
19.37740953
19.37744968
19.37748407
19.3775123
19.37753407
19.37754906
19.37755705
19.37755783
19.37755126
19.37753725
19.37751575
19.3774868
19.37745046
19.37740685
19.37735613
19.37729852
19.37723428
19.37716368
19.37708703
19.37700469
19.37691699
19.37682432
19.37672703
19.37662551
19.37652012
19.37641124
19.3762992
19.37618436
19.37606702
19.3759475
19.37582608
19.37570303
19.37557858
19.37545297
19.3753264
19.37519908
19.37507119
19.37494289
19.37481435
19.3747679
19.37480384
19.37483999
19.37487649
19.37491349
19.37495112
19.37498953
19.37502885
19.37506923
19.37511081
19.37515372
19.3751981
19.37524408
19.37529181
19.37534141
19.37539301
19.37544673
19.37550269
19.37556099
19.37562176
19.37568507
19.37575101
19.37581967
19.37589109
19.37596532
19.37604239
19.37612231
19.37620505
19.37629059
19.37637886
19.37646977
19.37656319
19.37665897
19.37675692
19.3768568
19.37695837
19.3770613
19.37716526
19.37726987
19.3773747
19.37747928
19.37758312
19.37768569
19.37778641
19.3778847
19.37797992
19.37807146
19.37815867
19.37824088
19.37831745
19.37838776
19.37845116
19.37850709
19.37855497
19.3785943
19.37862461
19.37864551
19.37865664
19.37865775
19.37864861
19.37862911
19.3785992
19.37855891
19.37850832
19.37844761
19.37837701
19.37829682
19.37820739
19.37810911
19.37800243
19.37788781
19.37776574
19.37763674
19.37750132
19.37736002
19.37721334
19.37706179
19.37690586
19.37674603
19.37658274
19.3764164
19.37624743
19.37607618
19.375903
19.3757282
19.37555208
19.37537491
19.37519694
19.3750184
19.37483954
19.37477283
19.37481865
19.37486474
19.37491128
19.37495846
19.37500644
19.37505541
19.37510555
19.37515703
19.37521004
19.37526475
19.37532134
19.37537998
19.37544084
19.37550408
19.37556988
19.37563837
19.37570973
19.37578408
19.37586156
19.3759423
19.37602639
19.37611394
19.37620502
19.37629968
19.37639797
19.37649989
19.37660542
19.37671452
19.3768271
19.37694305
19.37706221
19.37718438
19.37730932
19.37743673
19.37756629
19.37769761
19.37783024
19.37796369
19.37809744
19.37823088
19.37836338
19.37849426
19.37862279
19.37874821
19.37886974
19.37898657
19.37909787
19.3792028
19.37930055
19.37939029
19.37947124
19.37954263
19.37960377
19.37965399
19.37969271
19.3797194
19.37973363
19.37973506
19.37972343
19.37969856
19.37966041
19.379609
19.37954446
19.37946699
19.37937691
19.37927459
19.37916047
19.37903506
19.37889893
19.37875268
19.37859693
19.37843233
19.37825956
19.37807928
19.37789214
19.3776988
19.37749988
19.37729598
19.37708767
19.37687549
19.37665994
19.37644151
19.37622061
19.37599765
19.37577301
19.37554703
19.37532004
19.37509233
19.3748642
19.37477761
19.37483304
19.37488879
19.37494508
19.37500214
19.37506017
19.37511941
19.37518005
19.37524233
19.37530645
19.37537263
19.37544108
19.37551201
19.37558563
19.37566213
19.37574171
19.37582457
19.37591089
19.37600083
19.37609456
19.37619223
19.37629396
19.37639988
19.37651007
19.3766246
19.37674351
19.37686682
19.37699451
19.37712651
19.37726274
19.37740304
19.37754723
19.37769507
19.37784626
19.37800047
19.37815727
19.3783162
19.37847673
19.37863828
19.37880017
19.37896171
19.37912212
19.37928057
19.37943619
19.37958805
19.37973521
19.37987668
19.38001147
19.38013855
19.38025694
19.38036564
19.38046369
19.38055019
19.38062426
19.38068511
19.38073203
19.38076439
19.38078166
19.38078343
19.38076937
19.38073929
19.38069312
19.38063089
19.38055275
19.38045897
19.38034992
19.38022603
19.38008787
19.37993605
19.37977124
19.37959418
19.37940563
19.37920638
19.37899723
19.378779
19.37855249
19.37831846
19.3780777
19.37783091
19.3775788
19.37732202
19.37706117
19.37679682
19.37652951
19.37625971
19.37598788
19.37571443
19.37543976
19.37516422
19.37488818
19.37478222
19.37484691
19.37491198
19.37497768
19.37504427
19.37511201
19.37518114
19.37525192
19.3753246
19.37539944
19.37547668
19.37555657
19.37563936
19.37572528
19.37581457
19.37590747
19.37600418
19.37610493
19.37620992
19.37631933
19.37643333
19.37655209
19.37667573
19.37680436
19.37693806
19.37707689
19.37722085
19.37736992
19.37752404
19.3776831
19.37784692
19.37801529
19.37818792
19.37836448
19.37854457
19.37872769
19.37891332
19.37910082
19.37928952
19.37947863
19.37966734
19.37985474
19.38003986
19.38022169
19.38039914
19.38057111
19.38073644
19.38089396
19.3810425
19.38118088
19.38130794
19.38142257
19.3815237
19.38161031
19.38168147
19.38173635
19.38177422
19.38179445
19.38179657
19.38178018
19.38174507
19.38169115
19.38161846
19.38152718
19.38141762
19.3812902
19.38114547
19.38098405
19.38080667
19.38061412
19.38040726
19.38018699
19.37995422
19.37970991
19.37945499
19.3791904
19.37891706
19.37863585
19.37834762
19.37805318
19.3777533
19.37744867
19.37713998
19.37682783
19.37651278
19.37619537
19.37587608
19.37555537
19.37523365
19.37491134
19.37478664
19.37486019
19.37493417
19.37500888
19.37508459
19.37516161
19.37524021
19.3753207
19.37540334
19.37548844
19.37557626
19.37566711
19.37576124
19.37585894
19.37596048
19.37606611
19.37617609
19.37629066
19.37641005
19.37653447
19.37666412
19.37679918
19.37693979
19.37708608
19.37723815
19.37739605
19.37755979
19.37772936
19.37790467
19.3780856
19.37827196
19.37846351
19.37865991
19.3788608
19.3790657
19.37927407
19.3794853
19.37969868
19.37991342
19.38012866
19.38034345
19.38055676
19.3807675
19.38097449
19.38117652
19.38137232
19.38156058
19.38173996
19.38190912
19.38206672
19.38221145
19.38234203
19.38245723
19.38255591
19.38263701
19.38269956
19.38274274
19.38276584
19.38276831
19.3827497
19.38270977
19.38264842
19.38256569
19.3824618
19.38233709
19.38219204
19.38202728
19.38184353
19.38164161
19.38142244
19.38118697
19.38093624
19.3806713
19.38039323
19.38010311
19.37980199
19.37949092
19.37917091
19.37884293
19.3785079
19.37816669
19.37782009
19.37746888
19.37711375
19.37675533
19.37639423
19.37603101
19.37566616
19.37530018
19.37493353
19.37479083
19.37487279
19.37495523
19.37503848
19.37512285
19.37520868
19.37529627
19.37538596
19.37547806
19.37557289
19.37567076
19.375772
19.37587691
19.37598579
19.37609895
19.37621667
19.37633924
19.37646693
19.37659999
19.37673866
19.37688317
19.3770337
19.37719044
19.37735351
19.37752301
19.37769903
19.37788157
19.3780706
19.37826605
19.37846777
19.37867555
19.37888912
19.37910813
19.37933214
19.37956064
19.37979302
19.38002861
19.3802666
19.38050614
19.38074624
19.38098586
19.38122384
19.38145897
19.38168994
19.38191539
19.38213389
19.382344
19.38254422
19.38273304
19.38290898
19.38307056
19.38321636
19.383345
19.38345521
19.3835458
19.38361569
19.38366396
19.38368981
19.38369263
19.38367192
19.38362742
19.383559
19.38346672
19.38335082
19.38321168
19.38304985
19.38286602
19.382661
19.38243572
19.38219118
19.38192847
19.38164875
19.38135319
19.38104298
19.38071935
19.38038346
19.3800365
19.37967958
19.37931379
19.37894015
19.37855963
19.37817313
19.37778149
19.37738549
19.37698585
19.37658323
19.37617824
19.37577145
19.37536341
19.37495462
19.37479477
19.37488463
19.37497503
19.37506631
19.37515882
19.37525293
19.37534897
19.37544731
19.3755483
19.37565228
19.3757596
19.37587061
19.37598564
19.37610504
19.37622912
19.37635821
19.37649262
19.37663265
19.37677857
19.37693065
19.37708913
19.37725422
19.37742612
19.37760497
19.37779089
19.37798395
19.37818417
19.37839153
19.37860593
19.37882722
19.37905518
19.37928949
19.37952978
19.37977557
19.3800263
19.38028132
19.38053985
19.38080105
19.38106396
19.38132751
19.38159054
19.3818518
19.38210994
19.38236354
19.3826111
19.38285105
19.38308179
19.38330169
19.3835091
19.38370236
19.38387988
19.38404006
19.38418142
19.38430254
19.3844021
19.38447895
19.38453204
19.38456051
19.38456368
19.38454102
19.38449221
19.38441713
19.38431585
19.38418862
19.38403588
19.38385821
19.38365639
19.3834313
19.38318396
19.38291549
19.38262709
19.38232002
19.38199557
19.38165506
19.38129983
19.38093117
19.38055037
19.38015866
19.37975724
19.37934722
19.37892967
19.37850557
19.37807585
19.37764137
19.3772029
19.37676117
19.37631686
19.37587059
19.37542294
19.37497448
19.37479843
19.37489565
19.37499344
19.37509219
19.37519227
19.37529408
19.37539798
19.37550437
19.37561362
19.37572611
19.37584222
19.37596232
19.37608677
19.37621595
19.37635019
19.37648986
19.37663529
19.3767868
19.37694468
19.37710923
19.37728072
19.37745936
19.37764537
19.37783891
19.3780401
19.37824903
19.37846573
19.37869015
19.3789222
19.37916172
19.37940846
19.3796621
19.37992222
19.38018832
19.38045978
19.38073588
19.38101582
19.38129867
19.38158338
19.3818688
19.38215369
19.38243667
19.3827163
19.38299103
19.38325923
19.38351921
19.38376924
19.38400754
19.38423231
19.38444179
19.3846342
19.38480785
19.38496111
19.38509244
19.38520042
19.38528378
19.3853414
19.38537235
19.38537587
19.38535139
19.38529857
19.38521729
19.38510761
19.38496981
19.38480436
19.38461191
19.38439328
19.38414946
19.38388153
19.38359073
19.38327834
19.38294574
19.38259433
19.38222555
19.38184084
19.38144161
19.38102924
19.38060509
19.38017044
19.3797265
19.37927443
19.37881529
19.37835009
19.37787974
19.3774051
19.37692694
19.37644599
19.37596293
19.37547839
19.37499298
19.3748018
19.37490577
19.37501035
19.37511596
19.375223
19.37533187
19.375443
19.37555678
19.37567363
19.37579394
19.37591812
19.37604656
19.37617967
19.37631783
19.37646142
19.37661081
19.37676636
19.37692841
19.37709729
19.37727331
19.37745674
19.37764784
19.37784682
19.37805387
19.37826911
19.37849263
19.37872447
19.37896458
19.37921287
19.37946916
19.37973319
19.38000462
19.38028299
19.38056777
19.38085831
19.38115384
19.3814535
19.38175628
19.38206107
19.38236666
19.38267168
19.3829747
19.38327414
19.38356835
19.3838556
19.38413407
19.3844019
19.38465718
19.38489799
19.38512243
19.38532862
19.38551471
19.38567897
19.38581974
19.38593551
19.38602491
19.38608673
19.38611997
19.38612383
19.38609769
19.38604119
19.3859542
19.38583678
19.38568923
19.38551207
19.38530598
19.38507187
19.38481076
19.38452386
19.38421246
19.38387796
19.38352182
19.38314557
19.38275073
19.38233885
19.38191144
19.38147001
19.38101597
19.38055072
19.38007555
19.37959169
19.3791003
19.37860243
19.37809908
19.37759114
19.37707946
19.3765648
19.3760479
19.37552941
19.37501
19.37480484
19.37491492
19.37502566
19.37513747
19.37525081
19.37536609
19.37548375
19.37560422
19.37572794
19.37585533
19.37598682
19.37612282
19.37626377
19.37641006
19.37656211
19.37672029
19.37688501
19.37705661
19.37723545
19.37742185
19.37761611
19.37781849
19.37802922
19.3782485
19.37847647
19.37871321
19.37895877
19.37921311
19.37947612
19.37974761
19.38002732
19.38031487
19.38060979
19.38091152
19.38121937
19.38153253
19.38185007
19.38217094
19.38249398
19.38281786
19.38314118
19.38346239
19.38377983
19.38409176
19.38439632
19.38469159
19.3849756
19.38524633
19.38550174
19.3857398
19.38595852
19.38615594
19.38633022
19.38647959
19.38660246
19.38669736
19.38676302
19.38679836
19.38680255
19.38677491
19.38671508
19.38662291
19.38649846
19.38634206
19.38615426
19.38593579
19.3856876
19.3854108
19.38510665
19.38477653
19.38442194
19.38404443
19.38364561
19.38322711
19.38279056
19.38233758
19.38186975
19.3813886
19.38089557
19.38039207
19.37987938
19.37935872
19.37883123
19.37829794
19.37775981
19.37721773
19.37667251
19.37612492
19.37557566
19.37502542
19.37480755
19.37492307
19.37503927
19.3751566
19.37527553
19.3753965
19.37551998
19.3756464
19.37577623
19.37590991
19.3760479
19.37619062
19.37633853
19.37649206
19.37665162
19.37681764
19.3769905
19.3771706
19.3773583
19.37755393
19.37775782
19.37797023
19.37819142
19.37842159
19.37866088
19.37890939
19.37916716
19.37943416
19.37971027
19.37999529
19.38028895
19.38059087
19.38090054
19.38121737
19.38154063
19.38186949
19.38220298
19.38253998
19.38287927
19.38321948
19.38355911
19.38389655
19.38423005
19.38455778
19.3848778
19.38518807
19.38548654
19.38577106
19.38603951
19.38628974
19.38651965
19.3867272
19.38691044
19.38706751
19.38719673
19.38729656
19.38736566
19.3874029
19.38740738
19.38737843
19.38731563
19.38721884
19.38708813
19.38692384
19.38672654
19.38649702
19.38623627
19.38594546
19.38562593
19.38527912
19.38490661
19.38451003
19.38409108
19.38365148
19.38319294
19.38271716
19.3822258
19.38172047
19.3812027
19.38067395
19.38013557
19.37958885
19.37903496
19.37847501
19.37791
19.37734085
19.37676841
19.3761935
19.37561684
19.37503916
19.3748099
19.37493014
19.37505109
19.37517323
19.37529702
19.37542294
19.37555146
19.37568305
19.37581819
19.37595734
19.37610097
19.37624954
19.37640351
19.37656332
19.37672942
19.37690224
19.37708219
19.37726967
19.37746507
19.37766873
19.37788098
19.37810212
19.3783324
19.37857203
19.37882117
19.37907992
19.37934832
19.37962632
19.37991383
19.38021063
19.38051644
19.38083085
19.38115335
19.38148332
19.38182002
19.38216255
19.38250992
19.38286098
19.38321443
19.38356886
19.38392271
19.38427429
19.3846218
19.38496331
19.3852968
19.38562016
19.38593124
19.3862278
19.38650762
19.38676848
19.38700817
19.38722457
19.38741563
19.38757944
19.38771421
19.38781835
19.38789046
19.38792936
19.38793412
19.38790402
19.38783865
19.38773783
19.38760167
19.3874305
19.38722492
19.38698577
19.38671407
19.38641105
19.3860781
19.38571674
19.38532861
19.38491541
19.38447892
19.38402093
19.38354322
19.38304758
19.38253573
19.38200935
19.38147003
19.38091928
19.38035854
19.37978912
19.37921227
19.37862911
19.37804069
19.37744798
19.37685187
19.37625317
19.37565268
19.37505111
19.37481188
19.37493611
19.37506106
19.37518724
19.37531513
19.37544522
19.375578
19.37571395
19.37585357
19.37599733
19.37614572
19.37629921
19.37645828
19.3766234
19.37679501
19.37697356
19.37715949
19.3773532
19.37755508
19.37776552
19.37798483
19.37821333
19.37845128
19.3786989
19.37895634
19.37922372
19.37950108
19.37978838
19.38008551
19.38039225
19.38070831
19.38103327
19.3813666
19.38170767
19.38205571
19.38240979
19.38276889
19.38313181
19.38349723
19.38386368
19.38422955
19.38459309
19.38495243
19.3853056
19.38565048
19.38598492
19.38630666
19.38661341
19.38690287
19.38717272
19.38742069
19.38764458
19.38784227
19.38801178
19.38815125
19.38825905
19.38833372
19.38837404
19.38837904
19.38834798
19.38828043
19.38817622
19.38803544
19.38785846
19.38764589
19.38739859
19.38711763
19.38680429
19.38646
19.38608634
19.385685
19.38525775
19.38480643
19.3843329
19.383839
19.38332657
19.38279741
19.38225324
19.38169571
19.3811264
19.38054676
19.37995818
19.37936193
19.37875918
19.37815101
19.37753841
19.3769223
19.37630354
19.37568292
19.3750612
19.37481349
19.37494092
19.37506911
19.37519855
19.37532975
19.37546321
19.37559943
19.3757389
19.37588213
19.37602962
19.37618185
19.37633933
19.37650252
19.37667191
19.37684798
19.37703116
19.37722191
19.37742065
19.37762779
19.37784369
19.37806871
19.37830315
19.3785473
19.37880137
19.37906552
19.37933989
19.37962449
19.3799193
19.3802242
19.38053897
19.38086332
19.38119681
19.3815389
19.38188895
19.38224615
19.38260958
19.38297816
19.38335069
19.38372579
19.38410197
19.38447756
19.38485078
19.38521971
19.38558231
19.38593643
19.38627983
19.38661021
19.38692522
19.38722248
19.38749961
19.3877543
19.38798426
19.38818733
19.38836146
19.38850476
19.38861552
19.38869227
19.38873374
19.38873894
19.38870711
19.3886378
19.38853084
19.38838633
19.38820464
19.38798641
19.38773252
19.38744407
19.38712237
19.38676889
19.38638527
19.38597324
19.38553462
19.38507131
19.38458519
19.38407819
19.38355218
19.38300901
19.38245045
19.38187819
19.38129386
19.38069895
19.38009487
19.37948293
19.37886433
19.37824019
19.37761151
19.37697925
19.37634426
19.37570737
19.37506935
19.37481469
19.37494456
19.37507519
19.3752071
19.3753408
19.37547681
19.37561562
19.37575775
19.37590372
19.37605402
19.37620915
19.37636963
19.37653594
19.37670857
19.376888
19.37707468
19.37726908
19.37747162
19.37768272
19.37790275
19.37813208
19.37837102
19.37861985
19.37887879
19.37914803
19.37942766
19.37971774
19.38001823
19.38032901
19.38064986
19.38098047
19.38132041
19.38166913
19.38202596
19.3823901
19.3827606
19.38313636
19.38351615
19.38389858
19.38428211
19.38466507
19.38504562
19.3854218
19.38579154
19.38615265
19.38650284
19.38683977
19.38716103
19.3874642
19.38774686
19.38800663
19.38824119
19.38844834
19.38862597
19.38877216
19.38888518
19.3889635
19.38900585
19.3890112
19.38897879
19.38890816
19.38879912
19.38865179
19.38846654
19.38824402
19.38798513
19.38769101
19.38736298
19.38700256
19.38661139
19.38619127
19.38574405
19.38527165
19.38477601
19.38425909
19.38372281
19.38316904
19.38259959
19.3820162
19.38142049
19.38081403
19.38019823
19.37957443
19.37894385
19.37830763
19.37766679
19.3770223
19.37637505
19.37572585
19.37507552
19.37481551
19.374947
19.37507927
19.37521283
19.37534821
19.37548592
19.37562647
19.37577039
19.37591818
19.37607036
19.37622745
19.37638994
19.37655834
19.37673314
19.37691482
19.37710385
19.37730069
19.37750578
19.37771953
19.37794234
19.37817456
19.37841651
19.37866848
19.37893069
19.37920332
19.37948649
19.37978025
19.38008454
19.38039926
19.38072418
19.38105899
19.38140326
19.38175643
19.38211781
19.3824866
19.38286184
19.38324241
19.38362708
19.38401442
19.3844029
19.38479079
19.38517626
19.38555731
19.38593185
19.38629764
19.3866524
19.38699372
19.38731917
19.38762631
19.38791268
19.38817587
19.38841352
19.3886234
19.38880339
19.38895153
19.38906606
19.38914545
19.38918838
19.38919384
19.38916104
19.38908952
19.38897909
19.38882986
19.38864222
19.38841682
19.38815459
19.38785666
19.38752438
19.38715929
19.38676307
19.38633751
19.38588452
19.38540602
19.384904
19.38438042
19.38383725
19.38327636
19.38269961
19.38210874
19.38150542
19.3808912
19.38026754
19.37963579
19.37899717
19.37835285
19.37770386
19.37705117
19.37639569
19.37573825
19.37507965
19.37481591
19.37494822
19.37508131
19.37521571
19.37535192
19.37549049
19.37563191
19.37577672
19.37592543
19.37607856
19.37623663
19.37640013
19.37656957
19.37674546
19.37692827
19.37711848
19.37731655
19.37752291
19.377738
19.37796219
19.37819586
19.37843933
19.37869287
19.37895672
19.37923106
19.37951601
19.3798116
19.3801178
19.3804345
19.38076147
19.38109839
19.38144482
19.38180022
19.38216389
19.38253501
19.38291263
19.38329562
19.38368273
19.38407254
19.3844635
19.38485387
19.3852418
19.3856253
19.38600224
19.3863704
19.38672744
19.38707096
19.38739853
19.38770766
19.38799589
19.38826079
19.3885
19.38871126
19.38889243
19.38904155
19.38915684
19.38923676
19.38927999
19.3892855
19.3892525
19.38918053
19.3890694
19.38891922
19.38873038
19.38850355
19.38823963
19.38793979
19.38760538
19.38723795
19.38683918
19.3864109
19.38595501
19.38547345
19.38496822
19.38444131
19.38389467
19.38333022
19.3827498
19.38215518
19.38154804
19.38092993
19.38030232
19.37966657
19.37902393
19.37837554
19.37772246
19.37706566
19.37640605
19.37574447
19.37508173
19.37481591
19.37494822
19.37508131
19.37521571
19.37535192
19.37549049
19.37563191
19.37577672
19.37592543
19.37607856
19.37623663
19.37640013
19.37656957
19.37674546
19.37692827
19.37711848
19.37731655
19.37752291
19.377738
19.37796219
19.37819586
19.37843933
19.37869287
19.37895672
19.37923106
19.37951601
19.3798116
19.3801178
19.3804345
19.38076147
19.38109839
19.38144482
19.38180022
19.38216389
19.38253501
19.38291263
19.38329562
19.38368273
19.38407254
19.3844635
19.38485387
19.3852418
19.3856253
19.38600224
19.3863704
19.38672744
19.38707096
19.38739853
19.38770766
19.38799589
19.38826079
19.3885
19.38871126
19.38889243
19.38904155
19.38915684
19.38923676
19.38927999
19.3892855
19.3892525
19.38918053
19.3890694
19.38891922
19.38873038
19.38850354
19.38823963
19.38793978
19.38760538
19.38723794
19.38683918
19.3864109
19.38595501
19.38547345
19.38496822
19.38444131
19.38389467
19.38333022
19.3827498
19.38215518
19.38154804
19.38092993
19.38030232
19.37966657
19.37902393
19.37837554
19.37772246
19.37706566
19.37640605
19.37574447
19.37508173
19.37481551
19.374947
19.37507927
19.37521283
19.37534821
19.37548592
19.37562647
19.37577039
19.37591818
19.37607036
19.37622745
19.37638994
19.37655834
19.37673314
19.37691482
19.37710385
19.37730069
19.37750578
19.37771953
19.37794234
19.37817456
19.37841651
19.37866848
19.37893069
19.37920332
19.3794865
19.37978025
19.38008454
19.38039926
19.38072418
19.381059
19.38140326
19.38175643
19.38211781
19.3824866
19.38286184
19.38324241
19.38362708
19.38401443
19.3844029
19.38479079
19.38517626
19.38555731
19.38593185
19.38629765
19.3866524
19.38699372
19.38731917
19.38762631
19.38791268
19.38817587
19.38841352
19.3886234
19.38880339
19.38895153
19.38906606
19.38914545
19.38918838
19.38919384
19.38916104
19.38908951
19.38897908
19.38882986
19.38864221
19.38841682
19.38815459
19.38785665
19.38752438
19.38715929
19.38676307
19.38633751
19.38588452
19.38540602
19.384904
19.38438042
19.38383725
19.38327636
19.38269961
19.38210874
19.38150542
19.3808912
19.38026754
19.37963579
19.37899717
19.37835285
19.37770386
19.37705117
19.37639569
19.37573825
19.37507965
19.37481469
19.37494456
19.37507519
19.3752071
19.3753408
19.37547681
19.37561562
19.37575775
19.37590372
19.37605402
19.37620915
19.37636963
19.37653594
19.37670857
19.376888
19.37707468
19.37726908
19.37747162
19.37768272
19.37790275
19.37813208
19.37837102
19.37861985
19.37887879
19.37914803
19.37942766
19.37971774
19.38001823
19.38032901
19.38064986
19.38098047
19.38132041
19.38166913
19.38202596
19.3823901
19.3827606
19.38313636
19.38351615
19.38389858
19.38428211
19.38466507
19.38504562
19.3854218
19.38579154
19.38615265
19.38650284
19.38683977
19.38716103
19.3874642
19.38774686
19.38800663
19.38824119
19.38844834
19.38862597
19.38877216
19.38888518
19.3889635
19.38900585
19.3890112
19.38897879
19.38890816
19.38879912
19.38865178
19.38846653
19.38824402
19.38798513
19.38769101
19.38736298
19.38700255
19.38661139
19.38619127
19.38574405
19.38527165
19.38477601
19.38425909
19.38372281
19.38316904
19.38259959
19.3820162
19.3814205
19.38081403
19.38019823
19.37957443
19.37894385
19.37830763
19.37766679
19.3770223
19.37637505
19.37572585
19.37507552
19.37481349
19.37494092
19.37506911
19.37519856
19.37532975
19.37546321
19.37559943
19.3757389
19.37588213
19.37602962
19.37618185
19.37633933
19.37650252
19.37667192
19.37684798
19.37703116
19.37722191
19.37742065
19.37762779
19.37784369
19.37806871
19.37830315
19.3785473
19.37880137
19.37906553
19.37933989
19.37962449
19.3799193
19.3802242
19.38053898
19.38086332
19.38119681
19.38153891
19.38188895
19.38224615
19.38260958
19.38297817
19.38335069
19.38372579
19.38410197
19.38447756
19.38485078
19.38521971
19.38558231
19.38593643
19.38627983
19.38661021
19.38692522
19.38722248
19.38749961
19.3877543
19.38798426
19.38818733
19.38836146
19.38850475
19.38861552
19.38869227
19.38873373
19.38873894
19.3887071
19.3886378
19.38853084
19.38838633
19.38820464
19.38798641
19.38773252
19.38744407
19.38712236
19.38676889
19.38638527
19.38597324
19.38553462
19.3850713
19.38458519
19.38407819
19.38355218
19.38300901
19.38245045
19.38187819
19.38129386
19.38069895
19.38009487
19.37948293
19.37886434
19.37824019
19.37761151
19.37697925
19.37634426
19.37570737
19.37506935
19.37481188
19.37493611
19.37506106
19.37518724
19.37531513
19.37544522
19.375578
19.37571395
19.37585357
19.37599733
19.37614572
19.37629921
19.37645828
19.3766234
19.37679501
19.37697356
19.37715949
19.3773532
19.37755508
19.37776552
19.37798483
19.37821333
19.37845128
19.3786989
19.37895634
19.37922373
19.37950108
19.37978838
19.38008551
19.38039225
19.38070831
19.38103327
19.3813666
19.38170768
19.38205571
19.38240979
19.38276889
19.38313181
19.38349723
19.38386368
19.38422955
19.38459309
19.38495244
19.3853056
19.38565049
19.38598492
19.38630666
19.38661341
19.38690287
19.38717272
19.38742069
19.38764458
19.38784227
19.38801177
19.38815125
19.38825905
19.38833372
19.38837403
19.38837904
19.38834798
19.38828043
19.38817622
19.38803544
19.38785845
19.38764589
19.38739859
19.38711763
19.38680429
19.38646
19.38608633
19.38568499
19.38525775
19.38480643
19.3843329
19.383839
19.38332657
19.38279741
19.38225324
19.38169571
19.3811264
19.38054676
19.37995818
19.37936193
19.37875918
19.37815101
19.37753841
19.3769223
19.37630354
19.37568292
19.3750612
19.3748099
19.37493014
19.37505109
19.37517323
19.37529702
19.37542294
19.37555146
19.37568305
19.37581819
19.37595734
19.37610097
19.37624954
19.37640351
19.37656332
19.37672942
19.37690224
19.37708219
19.37726967
19.37746507
19.37766873
19.37788098
19.37810212
19.3783324
19.37857204
19.37882117
19.37907992
19.37934832
19.37962632
19.37991383
19.38021064
19.38051644
19.38083085
19.38115335
19.38148333
19.38182002
19.38216256
19.38250992
19.38286098
19.38321443
19.38356886
19.38392271
19.3842743
19.3846218
19.38496331
19.3852968
19.38562017
19.38593124
19.3862278
19.38650763
19.38676848
19.38700817
19.38722457
19.38741563
19.38757943
19.38771421
19.38781835
19.38789046
19.38792936
19.38793412
19.38790402
19.38783865
19.38773783
19.38760166
19.38743049
19.38722492
19.38698577
19.38671407
19.38641105
19.3860781
19.38571674
19.38532861
19.38491541
19.38447892
19.38402093
19.38354322
19.38304758
19.38253574
19.38200935
19.38147003
19.38091928
19.38035854
19.37978912
19.37921227
19.37862911
19.37804069
19.37744798
19.37685187
19.37625317
19.37565268
19.37505111
19.37480755
19.37492307
19.37503927
19.3751566
19.37527553
19.3753965
19.37551998
19.3756464
19.37577623
19.37590991
19.3760479
19.37619062
19.37633853
19.37649206
19.37665162
19.37681764
19.37699051
19.3771706
19.3773583
19.37755393
19.37775782
19.37797023
19.37819142
19.37842159
19.37866088
19.37890939
19.37916716
19.37943416
19.37971027
19.3799953
19.38028896
19.38059087
19.38090054
19.38121737
19.38154063
19.3818695
19.38220298
19.38253998
19.38287927
19.38321948
19.38355912
19.38389655
19.38423006
19.38455779
19.3848778
19.38518808
19.38548654
19.38577106
19.38603951
19.38628974
19.38651965
19.3867272
19.38691044
19.38706751
19.38719673
19.38729656
19.38736565
19.38740289
19.38740738
19.38737842
19.38731563
19.38721883
19.38708812
19.38692383
19.38672653
19.38649701
19.38623627
19.38594546
19.38562592
19.38527912
19.3849066
19.38451003
19.38409108
19.38365148
19.38319294
19.38271716
19.3822258
19.38172048
19.38120271
19.38067395
19.38013557
19.37958885
19.37903496
19.37847501
19.37791
19.37734085
19.37676842
19.3761935
19.37561684
19.37503916
19.37480484
19.37491492
19.37502566
19.37513748
19.37525081
19.37536609
19.37548375
19.37560422
19.37572794
19.37585533
19.37598682
19.37612282
19.37626377
19.37641006
19.37656211
19.37672029
19.37688501
19.37705661
19.37723545
19.37742185