# Motion State    
# Angle Units     : radians
# Time            	centreOfRotation	centreOfMass	rotation	velocity	omega
0.01              	(2.6565000014e+00 1.1351631874e-17 -2.4420360034e-04)	(2.6565000014e+00 1.1351631874e-17 -2.4420360034e-04)	(2.8115941195e-14 -8.6029701388e-12 -2.4005901830e-14)	(2.8994132159e-07 2.2703263749e-15 -4.8840720068e-02)	(5.6231882391e-12 -1.7205940278e-09 -4.8011803660e-12)
0.02              	(2.6565000065e+00 -1.6462485599e-14 -1.2209323651e-03)	(2.6565000065e+00 -1.6462485599e-14 -1.2209323651e-03)	(4.1752301397e-15 -1.1676253305e-10 -7.4475180085e-14)	(7.2616226978e-07 -3.2970377726e-12 -1.4650503288e-01)	(-1.0411330450e-11 -1.9911318554e-08 -5.2926752862e-12)
0.03              	(2.6565000148e+00 -9.2510356479e-14 -3.1740016844e-03)	(2.6565000148e+00 -9.2510356479e-14 -3.1740016844e-03)	(-6.6694624900e-13 -6.9522813049e-10 5.8325921953e-14)	(9.3409705788e-07 -1.1912536403e-11 -2.4410883099e-01)	(-1.2381296539e-10 -9.5781800935e-08 3.1852895725e-11)
0.04              	(2.6565000241e+00 -2.5089146063e-13 -6.1026904113e-03)	(2.6565000241e+00 -2.5089146063e-13 -6.1026904113e-03)	(-3.2259031143e-12 -2.7197664047e-09 1.2684842977e-12)	(9.2685261381e-07 -1.9763684428e-11 -3.4162891439e-01)	(-3.8797840813e-10 -3.0912585391e-07 2.1017878021e-10)
0.05              	(2.6565000311e+00 -4.5485769525e-13 -1.0006267926e-02)	(2.6565000311e+00 -4.5485769525e-13 -1.0006267926e-02)	(-9.6536666792e-12 -8.3158218799e-09 5.5789047056e-12)	(4.6923723647e-07 -2.1029562495e-11 -4.3908658845e-01)	(-8.9757430976e-10 -8.1008524113e-07 6.5190530877e-10)
0.06              	(2.6565000287e+00 -5.8847731464e-13 -1.4884246215e-02)	(2.6565000287e+00 -5.8847731464e-13 -1.4884246215e-02)	(-2.2906548377e-11 -2.1778701512e-08 1.5849073644e-11)	(-9.4356093094e-07 -5.6943613823e-12 -5.3650906941e-01)	(-1.7530020603e-09 -1.8824906854e-06 1.4021285242e-09)
0.07              	(2.6564999985e+00 -4.8759649131e-13 -2.0736272686e-02)	(2.6564999985e+00 -4.8759649131e-13 -2.0736272686e-02)	(-4.1171900618e-11 -5.3519020739e-08 3.5647422228e-11)	(-5.7548778630e-06 3.1870430251e-11 -6.3388312650e-01)	(-1.4530362528e-09 -5.0140563140e-06 2.7010893223e-09)
0.08              	(2.6564998960e+00 1.2016781165e-13 -2.7561703799e-02)	(2.6564998960e+00 1.2016781165e-13 -2.7561703799e-02)	(-3.8566924707e-11 -1.3904773846e-07 7.3233350336e-11)	(-1.5322731092e-05 8.5535944398e-11 -7.3120713485e-01)	(2.2737000658e-09 -1.2442995527e-05 4.7983144106e-09)
0.09              	(2.6564996749e+00 7.2239890850e-13 -3.5360464201e-02)	(2.6564996749e+00 7.2239890850e-13 -3.5360464201e-02)	(9.1471714533e-12 -3.0967934292e-07 1.2975093504e-10)	(-2.9472131302e-05 1.3904243897e-11 -8.2854488878e-01)	(7.3272185563e-09 -2.1884850788e-05 6.4928945623e-09)
0.1               	(2.6564992882e+00 1.2321797532e-12 -4.4132576657e-02)	(2.6564992882e+00 1.2321797532e-12 -4.4132576657e-02)	(1.0310966704e-10 -5.8250332388e-07 2.0395526662e-10)	(-4.8500930698e-05 1.4620112510e-10 -9.2587624564e-01)	(1.1121126092e-08 -3.2838899532e-05 8.4200602631e-09)
0.11              	(2.6564986779e+00 4.5626927283e-12 -5.3877878138e-02)	(2.6564986779e+00 4.5626927283e-12 -5.3877878138e-02)	(2.2612859139e-10 -9.7222041062e-07 3.0324785536e-10)	(-7.4837952189e-05 5.5171833331e-10 -1.0231739714e+00)	(1.4167840789e-08 -4.5879637491e-05 1.1769171810e-08)
0.12              	(2.6564977662e+00 1.1084257213e-11 -6.4596028061e-02)	(2.6564977662e+00 1.1084257213e-11 -6.4596028061e-02)	(4.0684109143e-10 -1.5136771110e-06 4.4152386491e-10)	(-1.0849823148e-04 8.9768552149e-10 -1.1204556929e+00)	(2.3285633556e-08 -6.2545597474e-05 1.6123419817e-08)
0.13              	(2.6564964845e+00 2.3584504804e-11 -7.6286954320e-02)	(2.6564964845e+00 2.3584504804e-11 -7.6286954320e-02)	(7.0722044574e-10 -2.2263490682e-06 6.2781875104e-10)	(-1.4882318463e-04 1.6074022387e-09 -1.2177272089e+00)	(3.7032051854e-08 -8.0296317465e-05 2.1329040537e-08)
0.14              	(2.6564947637e+00 4.2372950045e-11 -8.8950506791e-02)	(2.6564947637e+00 4.2372950045e-11 -8.8950506791e-02)	(1.1356783841e-09 -3.1226680245e-06 8.6686577879e-10)	(-1.9659044706e-04 2.0493325116e-09 -1.3149802646e+00)	(4.7639295538e-08 -9.8934719158e-05 2.7054558472e-08)
0.15              	(2.6564925108e+00 6.6340331793e-11 -1.0258642762e-01)	(2.6564925108e+00 6.6340331793e-11 -1.0258642762e-01)	(1.6788209791e-09 -4.2176153852e-06 1.2146065209e-09)	(-2.5627820561e-04 2.7802789541e-09 -1.4121965492e+00)	(6.2516019510e-08 -1.2153889079e-04 4.3312650463e-08)
0.16              	(2.6564895817e+00 8.6473741810e-11 -1.1719439628e-01)	(2.6564895817e+00 8.6473741810e-11 -1.1719439628e-01)	(2.3297465834e-09 -5.5664882611e-06 1.7004513516e-09)	(-3.3254613139e-04 1.6835579290e-09 -1.5093945456e+00)	(7.0115642715e-08 -1.4851424794e-04 5.3749766652e-08)
0.17              	(2.6564857813e+00 1.0771416181e-10 -1.3277424213e-01)	(2.6564857813e+00 1.0771416181e-10 -1.3277424213e-01)	(3.1305707525e-09 -7.1931224092e-06 2.3061576756e-09)	(-4.3163026587e-04 2.3231541694e-09 -1.6065706638e+00)	(8.8466667771e-08 -1.7700121663e-04 6.7817358006e-08)
0.18              	(2.6564808419e+00 1.2875881935e-10 -1.4932566492e-01)	(2.6564808419e+00 1.2875881935e-10 -1.4932566492e-01)	(4.0862507035e-09 -9.1208249442e-06 3.0780813545e-09)	(-5.6162012092e-04 1.7081188911e-09 -1.7037074977e+00)	(1.0214223147e-07 -2.1003355967e-04 8.7735816313e-08)
0.19              	(2.6564744340e+00 1.4186924202e-10 -1.6684832395e-01)	(2.6564744340e+00 1.4186924202e-10 -1.6684832395e-01)	(5.2000509091e-09 -1.1404761042e-05 4.0616008229e-09)	(-7.2564164728e-04 9.3553573818e-10 -1.8008199047e+00)	(1.1892308527e-07 -2.4716170094e-04 1.0910698483e-07)
0.2               	(2.6564661981e+00 1.4961080513e-10 -1.8534195450e-01)	(2.6564661981e+00 1.4961080513e-10 -1.8534195450e-01)	(6.5106394328e-09 -1.4071081987e-05 5.2795608818e-09)	(-9.2832105400e-04 3.7092277777e-10 -1.8979006822e+00)	(1.4289879001e-07 -2.8659975708e-04 1.3481430214e-07)
0.21              	(2.6564557083e+00 1.4804476279e-10 -2.0480621421e-01)	(2.6564557083e+00 1.4804476279e-10 -2.0480621421e-01)	(8.0590077373e-09 -1.7146450153e-05 6.7490003583e-09)	(-1.1778076332e-03 -9.0060904454e-10 -1.9949452523e+00)	(1.6728260062e-07 -3.2899255690e-04 1.5931932662e-07)
0.22              	(2.6564424436e+00 1.2942404547e-10 -2.2524068031e-01)	(2.6564424436e+00 1.2942404547e-10 -2.2524068031e-01)	(9.9085144650e-09 -2.0679876088e-05 8.4591188938e-09)	(-1.4850333041e-03 -2.0169735174e-09 -2.0919409631e+00)	(2.0718812389e-07 -3.7990858523e-04 1.8390524225e-07)
0.23              	(2.6564257957e+00 9.4560059734e-11 -2.4664492803e-01)	(2.6564257957e+00 9.4560059734e-11 -2.4664492803e-01)	(1.2190910720e-08 -2.4761593990e-05 1.0456167367e-08)	(-1.8554096111e-03 -4.8657770338e-09 -2.1889025459e+00)	(2.4876203374e-07 -4.3672310729e-04 2.1623460957e-07)
0.24              	(2.6564050795e+00 3.5186703851e-11 -2.6901855165e-01)	(2.6564050795e+00 3.5186703851e-11 -2.6901855165e-01)	(1.4875093553e-08 -2.9443431872e-05 1.2793286325e-08)	(-2.3009553876e-03 -7.1839405001e-09 -2.2858151280e+00)	(2.8791544349e-07 -5.0156842926e-04 2.5069931365e-07)
0.25              	(2.6563794678e+00 -5.6383999666e-11 -2.9236098424e-01)	(2.6563794678e+00 -5.6383999666e-11 -2.9236098424e-01)	(1.8010942423e-08 -3.4859497219e-05 1.5500776650e-08)	(-2.8374862754e-03 -1.1257402396e-08 -2.3826625042e+00)	(3.4026186526e-07 -5.8517507654e-04 2.9226376472e-07)
