/*--------------------------------*- C++ -*----------------------------------*\
| =========                 |                                                 |
| \\      /  F ield         | foam-extend: Open Source CFD                    |
|  \\    /   O peration     | Version:     4.1                                |
|   \\  /    A nd           | Web:         http://www.foam-extend.org         |
|    \\/     M anipulation  |                                                 |
\*---------------------------------------------------------------------------*/
FoamFile
{
    version     2.0;
    format      ascii;
    class       pointVectorField;
    location    "0";
    object      pointW;
}
// * * * * * * * * * * * * * * * * * * * * * * * * * * * * * * * * * * * * * //

dimensions      [0 1 0 0 0 0 0];

internalField   nonuniform List<vector> 
5124
(
(0 0 0)
(0 0 0)
(0 0 0)
(0 0 0)
(0.000306792 1.89189e-05 0)
(0.000306792 1.89189e-05 0)
(-0.0003068 1.87306e-05 0)
(-0.0003068 1.87306e-05 0)
(0.000613559 7.5675e-05 0)
(0.000613559 7.5675e-05 0)
(-0.000613621 7.49221e-05 0)
(-0.000613621 7.49221e-05 0)
(0.000920286 0.000170271 0)
(0.000920286 0.000170271 0)
(-0.000920494 0.000168576 0)
(-0.000920494 0.000168576 0)
(0.00122694 0.000302702 0)
(0.00122694 0.000302702 0)
(-0.00122743 0.000299691 0)
(-0.00122743 0.000299691 0)
(0.0015335 0.000472972 0)
(0.0015335 0.000472972 0)
(-0.00153446 0.000468266 0)
(-0.00153446 0.000468266 0)
(0.00183994 0.000681078 0)
(0.00183994 0.000681078 0)
(-0.0018416 0.000674301 0)
(-0.0018416 0.000674301 0)
(0.00214625 0.000927027 0)
(0.00214625 0.000927027 0)
(-0.00214889 0.000917802 0)
(-0.00214889 0.000917802 0)
(0.00245239 0.00121081 0)
(0.00245239 0.00121081 0)
(-0.00245633 0.00119876 0)
(-0.00245633 0.00119876 0)
(0.00275834 0.00153243 0)
(0.00275834 0.00153243 0)
(-0.00276396 0.00151718 0)
(-0.00276396 0.00151718 0)
(0.00306409 0.00189188 0)
(0.00306409 0.00189188 0)
(-0.00307179 0.00187306 0)
(-0.00307179 0.00187306 0)
(0.00336961 0.00228918 0)
(0.00336961 0.00228918 0)
(-0.00337986 0.0022664 0)
(-0.00337986 0.0022664 0)
(0.00367487 0.00272431 0)
(0.00367487 0.00272431 0)
(-0.00368818 0.0026972 0)
(-0.00368818 0.0026972 0)
(0.00397985 0.00319728 0)
(0.00397985 0.00319728 0)
(-0.00399677 0.00316546 0)
(-0.00399677 0.00316546 0)
(0.00428453 0.00370808 0)
(0.00428453 0.00370808 0)
(-0.00430566 0.00367118 0)
(-0.00430566 0.00367118 0)
(0.00458888 0.00425672 0)
(0.00458888 0.00425672 0)
(-0.00461487 0.00421436 0)
(-0.00461487 0.00421436 0)
(0.00489289 0.0048432 0)
(0.00489289 0.0048432 0)
(-0.00492443 0.00479501 0)
(-0.00492443 0.00479501 0)
(0.00519654 0.00546755 0)
(0.00519654 0.00546755 0)
(-0.00523437 0.00541314 0)
(-0.00523437 0.00541314 0)
(0.00549978 0.00612971 0)
(0.00549978 0.00612971 0)
(-0.00554469 0.00606871 0)
(-0.00554469 0.00606871 0)
(0.00580261 0.0068297 0)
(0.00580261 0.0068297 0)
(-0.00585543 0.00676174 0)
(-0.00585543 0.00676174 0)
(0.00610495 0.00756741 0)
(0.00610495 0.00756741 0)
(-0.00616655 0.00749211 0)
(-0.00616655 0.00749211 0)
(0.00640687 0.00834307 0)
(0.00640687 0.00834307 0)
(-0.00647818 0.00826006 0)
(-0.00647818 0.00826006 0)
(0.0067083 0.00915657 0)
(0.0067083 0.00915657 0)
(-0.00679029 0.00906546 0)
(-0.00679029 0.00906546 0)
(0.00700922 0.0100079 0)
(0.00700922 0.0100079 0)
(-0.00710291 0.00990832 0)
(-0.00710291 0.00990832 0)
(0.00730961 0.0108971 0)
(0.00730961 0.0108971 0)
(-0.00741606 0.0107886 0)
(-0.00741606 0.0107886 0)
(0.00760944 0.0118241 0)
(0.00760944 0.0118241 0)
(-0.00772976 0.0117064 0)
(-0.00772976 0.0117064 0)
(0.00790869 0.0127889 0)
(0.00790869 0.0127889 0)
(-0.00804403 0.0126617 0)
(-0.00804403 0.0126617 0)
(0.00820734 0.0137916 0)
(0.00820734 0.0137916 0)
(-0.00835891 0.0136543 0)
(-0.00835891 0.0136543 0)
(0.00850536 0.0148321 0)
(0.00850536 0.0148321 0)
(-0.0086744 0.0146845 0)
(-0.0086744 0.0146845 0)
(0.00880273 0.0159104 0)
(0.00880273 0.0159104 0)
(-0.00899053 0.0157521 0)
(-0.00899053 0.0157521 0)
(0.00909943 0.0170266 0)
(0.00909943 0.0170266 0)
(-0.00930734 0.0168572 0)
(-0.00930734 0.0168572 0)
(0.00939543 0.0181806 0)
(0.00939543 0.0181806 0)
(-0.00962483 0.0179997 0)
(-0.00962483 0.0179997 0)
(0.00969071 0.0193724 0)
(0.00969071 0.0193724 0)
(-0.00994303 0.0191797 0)
(-0.00994303 0.0191797 0)
(0.0099852 0.0206019 0)
(0.0099852 0.0206019 0)
(-0.0102619 0.0203969 0)
(-0.0102619 0.0203969 0)
(0.010279 0.0218694 0)
(0.010279 0.0218694 0)
(-0.0105816 0.0216518 0)
(-0.0105816 0.0216518 0)
(0.010572 0.0231747 0)
(0.010572 0.0231747 0)
(-0.0109021 0.0229441 0)
(-0.0109021 0.0229441 0)
(0.0108641 0.0245179 0)
(0.0108641 0.0245179 0)
(-0.0112234 0.0242739 0)
(-0.0112234 0.0242739 0)
(0.0111555 0.0258988 0)
(0.0111555 0.0258988 0)
(-0.0115455 0.0256411 0)
(-0.0115455 0.0256411 0)
(0.0114459 0.0273176 0)
(0.0114459 0.0273176 0)
(-0.0118685 0.0270458 0)
(-0.0118685 0.0270458 0)
(0.0117355 0.0287743 0)
(0.0117355 0.0287743 0)
(-0.0121923 0.028488 0)
(-0.0121923 0.028488 0)
(0.0120242 0.0302687 0)
(0.0120242 0.0302687 0)
(-0.012517 0.0299676 0)
(-0.012517 0.0299676 0)
(0.012312 0.031801 0)
(0.012312 0.031801 0)
(-0.0128427 0.0314846 0)
(-0.0128427 0.0314846 0)
(0.0125988 0.0333712 0)
(0.0125988 0.0333712 0)
(-0.0131693 0.0330391 0)
(-0.0131693 0.0330391 0)
(0.0128846 0.0349791 0)
(0.0128846 0.0349791 0)
(-0.0134968 0.0346311 0)
(-0.0134968 0.0346311 0)
(0.0131694 0.0366249 0)
(0.0131694 0.0366249 0)
(-0.0138254 0.0362605 0)
(-0.0138254 0.0362605 0)
(0.0134533 0.0383085 0)
(0.0134533 0.0383085 0)
(-0.0141549 0.0379273 0)
(-0.0141549 0.0379273 0)
(0.013736 0.0400296 0)
(0.013736 0.0400296 0)
(-0.0144855 0.0396313 0)
(-0.0144855 0.0396313 0)
(0.0140177 0.0417889 0)
(0.0140177 0.0417889 0)
(-0.0148171 0.041373 0)
(-0.0148171 0.041373 0)
(0.0142983 0.0435859 0)
(0.0142983 0.0435859 0)
(-0.0151499 0.0431522 0)
(-0.0151499 0.0431522 0)
(0.0145778 0.0454208 0)
(0.0145778 0.0454208 0)
(-0.0154837 0.0449688 0)
(-0.0154837 0.0449688 0)
(0.0148561 0.0472935 0)
(0.0148561 0.0472935 0)
(-0.0158187 0.0468229 0)
(-0.0158187 0.0468229 0)
(0.0151333 0.049204 0)
(0.0151333 0.049204 0)
(-0.0161548 0.0487144 0)
(-0.0161548 0.0487144 0)
(0.0154093 0.0511524 0)
(0.0154093 0.0511524 0)
(-0.016492 0.0506434 0)
(-0.016492 0.0506434 0)
(0.0156842 0.0531385 0)
(0.0156842 0.0531385 0)
(-0.0168305 0.0526098 0)
(-0.0168305 0.0526098 0)
(0.0159577 0.0551625 0)
(0.0159577 0.0551625 0)
(-0.0171702 0.0546136 0)
(-0.0171702 0.0546136 0)
(0.0162301 0.0572243 0)
(0.0162301 0.0572243 0)
(-0.0175112 0.0566549 0)
(-0.0175112 0.0566549 0)
(0.0165011 0.059324 0)
(0.0165011 0.059324 0)
(-0.0178533 0.0587337 0)
(-0.0178533 0.0587337 0)
(0.0167708 0.0614614 0)
(0.0167708 0.0614614 0)
(-0.0181968 0.0608498 0)
(-0.0181968 0.0608498 0)
(0.0170393 0.0636366 0)
(0.0170393 0.0636366 0)
(-0.0185416 0.0630034 0)
(-0.0185416 0.0630034 0)
(0.0173063 0.0658493 0)
(0.0173063 0.0658493 0)
(-0.0188877 0.0651941 0)
(-0.0188877 0.0651941 0)
(0.017572 0.0681002 0)
(0.017572 0.0681002 0)
(-0.0192352 0.0674226 0)
(-0.0192352 0.0674226 0)
(0.0178363 0.0703889 0)
(0.0178363 0.0703889 0)
(-0.0195841 0.0696885 0)
(-0.0195841 0.0696885 0)
(0.0180992 0.0727154 0)
(0.0180992 0.0727154 0)
(-0.0199343 0.0719919 0)
(-0.0199343 0.0719919 0)
(0.0183607 0.0750797 0)
(0.0183607 0.0750797 0)
(-0.020286 0.0743327 0)
(-0.020286 0.0743327 0)
(0.0186207 0.0774818 0)
(0.0186207 0.0774818 0)
(-0.0206391 0.0767109 0)
(-0.0206391 0.0767109 0)
(0.0188792 0.0799218 0)
(0.0188792 0.0799218 0)
(-0.0209938 0.0791265 0)
(-0.0209938 0.0791265 0)
(0.0191362 0.0823995 0)
(0.0191362 0.0823995 0)
(-0.0213499 0.0815796 0)
(-0.0213499 0.0815796 0)
(0.0193916 0.0849151 0)
(0.0193916 0.0849151 0)
(-0.0217075 0.0840701 0)
(-0.0217075 0.0840701 0)
(0.0196456 0.0874684 0)
(0.0196456 0.0874684 0)
(-0.0220666 0.0865981 0)
(-0.0220666 0.0865981 0)
(0.0198979 0.0900596 0)
(0.0198979 0.0900596 0)
(-0.0224274 0.0891635 0)
(-0.0224274 0.0891635 0)
(0.0201486 0.0926885 0)
(0.0201486 0.0926885 0)
(-0.0227897 0.0917663 0)
(-0.0227897 0.0917663 0)
(0.0203977 0.0953553 0)
(0.0203977 0.0953553 0)
(-0.0231536 0.0944065 0)
(-0.0231536 0.0944065 0)
(0.0206452 0.0980594 0)
(0.0206452 0.0980594 0)
(-0.0235191 0.0970837 0)
(-0.0235191 0.0970837 0)
(0.020891 0.100802 0)
(0.020891 0.100802 0)
(-0.0238863 0.0997988 0)
(-0.0238863 0.0997988 0)
(0.0211351 0.103582 0)
(0.0211351 0.103582 0)
(-0.0242552 0.102551 0)
(-0.0242552 0.102551 0)
(0.0213774 0.1064 0)
(0.0213774 0.1064 0)
(-0.0246257 0.105341 0)
(-0.0246257 0.105341 0)
(0.0216181 0.109256 0)
(0.0216181 0.109256 0)
(-0.024998 0.108169 0)
(-0.024998 0.108169 0)
(0.0218569 0.112149 0)
(0.0218569 0.112149 0)
(-0.0253721 0.111033 0)
(-0.0253721 0.111033 0)
(0.022094 0.115081 0)
(0.022094 0.115081 0)
(-0.0257479 0.113936 0)
(-0.0257479 0.113936 0)
(0.0223293 0.11805 0)
(0.0223293 0.11805 0)
(-0.0261255 0.116875 0)
(-0.0261255 0.116875 0)
(0.0225628 0.121057 0)
(0.0225628 0.121057 0)
(-0.0265049 0.119852 0)
(-0.0265049 0.119852 0)
(0.0227943 0.124101 0)
(0.0227943 0.124101 0)
(-0.0268862 0.122867 0)
(-0.0268862 0.122867 0)
(0.0230241 0.127184 0)
(0.0230241 0.127184 0)
(-0.0272693 0.125919 0)
(-0.0272693 0.125919 0)
(0.0232519 0.130304 0)
(0.0232519 0.130304 0)
(-0.0276543 0.129008 0)
(-0.0276543 0.129008 0)
(0.0234777 0.133462 0)
(0.0234777 0.133462 0)
(-0.0280413 0.132134 0)
(-0.0280413 0.132134 0)
(0.0237016 0.136658 0)
(0.0237016 0.136658 0)
(-0.02843 0.135298 0)
(-0.02843 0.135298 0)
(0.0239236 0.139892 0)
(0.0239236 0.139892 0)
(-0.0288208 0.1385 0)
(-0.0288208 0.1385 0)
(0.0241435 0.143163 0)
(0.0241435 0.143163 0)
(-0.0292136 0.141739 0)
(-0.0292136 0.141739 0)
(0.0243615 0.146472 0)
(0.0243615 0.146472 0)
(-0.0296084 0.145015 0)
(-0.0296084 0.145015 0)
(0.0245774 0.149819 0)
(0.0245774 0.149819 0)
(-0.0300052 0.148329 0)
(-0.0300052 0.148329 0)
(0.0247912 0.153204 0)
(0.0247912 0.153204 0)
(-0.030404 0.15168 0)
(-0.030404 0.15168 0)
(0.025003 0.156627 0)
(0.025003 0.156627 0)
(-0.0308049 0.155068 0)
(-0.0308049 0.155068 0)
(0.0252126 0.160087 0)
(0.0252126 0.160087 0)
(-0.0312079 0.158494 0)
(-0.0312079 0.158494 0)
(0.0254201 0.163585 0)
(0.0254201 0.163585 0)
(-0.031613 0.161958 0)
(-0.031613 0.161958 0)
(0.0256254 0.167121 0)
(0.0256254 0.167121 0)
(-0.0320203 0.165458 0)
(-0.0320203 0.165458 0)
(0.0258286 0.170695 0)
(0.0258286 0.170695 0)
(-0.0324297 0.168996 0)
(-0.0324297 0.168996 0)
(0.0260296 0.174306 0)
(0.0260296 0.174306 0)
(-0.0328413 0.172572 0)
(-0.0328413 0.172572 0)
(0.0262283 0.177956 0)
(0.0262283 0.177956 0)
(-0.0332551 0.176185 0)
(-0.0332551 0.176185 0)
(0.0264247 0.181642 0)
(0.0264247 0.181642 0)
(-0.033671 0.179835 0)
(-0.033671 0.179835 0)
(0.0266189 0.185367 0)
(0.0266189 0.185367 0)
(-0.0340893 0.183522 0)
(-0.0340893 0.183522 0)
(0.0268108 0.189129 0)
(0.0268108 0.189129 0)
(-0.0345099 0.187248 0)
(-0.0345099 0.187248 0)
(0.0270004 0.19293 0)
(0.0270004 0.19293 0)
(-0.0349327 0.19101 0)
(-0.0349327 0.19101 0)
(0.0271877 0.196768 0)
(0.0271877 0.196768 0)
(-0.0353579 0.19481 0)
(-0.0353579 0.19481 0)
(0.0273725 0.200644 0)
(0.0273725 0.200644 0)
(-0.0357854 0.198647 0)
(-0.0357854 0.198647 0)
(0.027555 0.204557 0)
(0.027555 0.204557 0)
(-0.0362153 0.202522 0)
(-0.0362153 0.202522 0)
(0.0277351 0.208509 0)
(0.0277351 0.208509 0)
(-0.0366475 0.206434 0)
(-0.0366475 0.206434 0)
(0.0279127 0.212498 0)
(0.0279127 0.212498 0)
(-0.0370822 0.210384 0)
(-0.0370822 0.210384 0)
(0.0280879 0.216525 0)
(0.0280879 0.216525 0)
(-0.0375193 0.21437 0)
(-0.0375193 0.21437 0)
(0.0282606 0.22059 0)
(0.0282606 0.22059 0)
(-0.0379589 0.218395 0)
(-0.0379589 0.218395 0)
(0.0284308 0.224692 0)
(0.0284308 0.224692 0)
(-0.038401 0.222456 0)
(-0.038401 0.222456 0)
(0.0285985 0.228832 0)
(0.0285985 0.228832 0)
(-0.0388455 0.226555 0)
(-0.0388455 0.226555 0)
(0.0287635 0.233009 0)
(0.0287635 0.233009 0)
(-0.0392925 0.230691 0)
(-0.0392925 0.230691 0)
(0.0289261 0.237225 0)
(0.0289261 0.237225 0)
(-0.0397422 0.234865 0)
(-0.0397422 0.234865 0)
(0.029086 0.241479 0)
(0.029086 0.241479 0)
(-0.0401944 0.239076 0)
(-0.0401944 0.239076 0)
(0.0292433 0.24577 0)
(0.0292433 0.24577 0)
(-0.0406492 0.243324 0)
(-0.0406492 0.243324 0)
(0.029398 0.250099 0)
(0.029398 0.250099 0)
(-0.0411066 0.24761 0)
(-0.0411066 0.24761 0)
(0.02955 0.254465 0)
(0.02955 0.254465 0)
(-0.0415666 0.251933 0)
(-0.0415666 0.251933 0)
(0.0296993 0.25887 0)
(0.0296993 0.25887 0)
(-0.0420293 0.256294 0)
(-0.0420293 0.256294 0)
(0.0298459 0.263312 0)
(0.0298459 0.263312 0)
(-0.0424948 0.260692 0)
(-0.0424948 0.260692 0)
(0.0299898 0.267792 0)
(0.0299898 0.267792 0)
(-0.0429629 0.265127 0)
(-0.0429629 0.265127 0)
(0.0301309 0.272309 0)
(0.0301309 0.272309 0)
(-0.0434337 0.2696 0)
(-0.0434337 0.2696 0)
(0.0302692 0.276865 0)
(0.0302692 0.276865 0)
(-0.0439073 0.27411 0)
(-0.0439073 0.27411 0)
(0.0304047 0.281458 0)
(0.0304047 0.281458 0)
(-0.0443837 0.278657 0)
(-0.0443837 0.278657 0)
(0.0305374 0.286089 0)
(0.0305374 0.286089 0)
(-0.0448629 0.283242 0)
(-0.0448629 0.283242 0)
(0.0306672 0.290756 0)
(0.0306672 0.290756 0)
(-0.0453449 0.287863 0)
(-0.0453449 0.287863 0)
(0.0307941 0.295463 0)
(0.0307941 0.295463 0)
(-0.0458297 0.292523 0)
(-0.0458297 0.292523 0)
(0.0309182 0.300207 0)
(0.0309182 0.300207 0)
(-0.0463174 0.29722 0)
(-0.0463174 0.29722 0)
(0.0310393 0.304988 0)
(0.0310393 0.304988 0)
(-0.0468081 0.301954 0)
(-0.0468081 0.301954 0)
(0.0311575 0.309808 0)
(0.0311575 0.309808 0)
(-0.0473016 0.306725 0)
(-0.0473016 0.306725 0)
(0.0312727 0.314665 0)
(0.0312727 0.314665 0)
(-0.0477981 0.311534 0)
(-0.0477981 0.311534 0)
(0.0313849 0.31956 0)
(0.0313849 0.31956 0)
(-0.0482975 0.31638 0)
(-0.0482975 0.31638 0)
(0.0314941 0.324493 0)
(0.0314941 0.324493 0)
(-0.0488 0.321264 0)
(-0.0488 0.321264 0)
(0.0316003 0.329463 0)
(0.0316003 0.329463 0)
(-0.0493054 0.326185 0)
(-0.0493054 0.326185 0)
(0.0317034 0.334471 0)
(0.0317034 0.334471 0)
(-0.0498139 0.331143 0)
(-0.0498139 0.331143 0)
(0.0318034 0.339517 0)
(0.0318034 0.339517 0)
(-0.0503254 0.336138 0)
(-0.0503254 0.336138 0)
(0.0319003 0.3446 0)
(0.0319003 0.3446 0)
(-0.05084 0.341171 0)
(-0.05084 0.341171 0)
(0.0319941 0.349721 0)
(0.0319941 0.349721 0)
(-0.0513577 0.346242 0)
(-0.0513577 0.346242 0)
(0.0320847 0.354879 0)
(0.0320847 0.354879 0)
(-0.0518784 0.351348 0)
(-0.0518784 0.351348 0)
(0.0321722 0.360076 0)
(0.0321722 0.360076 0)
(-0.0524024 0.356493 0)
(-0.0524024 0.356493 0)
(0.0322564 0.36531 0)
(0.0322564 0.36531 0)
(-0.0529295 0.361675 0)
(-0.0529295 0.361675 0)
(0.0323375 0.370582 0)
(0.0323375 0.370582 0)
(-0.0534598 0.366895 0)
(-0.0534598 0.366895 0)
(0.0324153 0.375892 0)
(0.0324153 0.375892 0)
(-0.0539934 0.372152 0)
(-0.0539934 0.372152 0)
(0.0324898 0.381239 0)
(0.0324898 0.381239 0)
(-0.0545301 0.377446 0)
(-0.0545301 0.377446 0)
(0.032561 0.386625 0)
(0.032561 0.386625 0)
(-0.0550702 0.382778 0)
(-0.0550702 0.382778 0)
(0.0326289 0.392047 0)
(0.0326289 0.392047 0)
(-0.0556135 0.388146 0)
(-0.0556135 0.388146 0)
(0.0326935 0.397508 0)
(0.0326935 0.397508 0)
(-0.0561601 0.393552 0)
(-0.0561601 0.393552 0)
(0.0327547 0.403006 0)
(0.0327547 0.403006 0)
(-0.0567101 0.398996 0)
(-0.0567101 0.398996 0)
(0.0328125 0.408542 0)
(0.0328125 0.408542 0)
(-0.0572634 0.404477 0)
(-0.0572634 0.404477 0)
(0.0328669 0.414115 0)
(0.0328669 0.414115 0)
(-0.05782 0.409995 0)
(-0.05782 0.409995 0)
(0.0329179 0.419727 0)
(0.0329179 0.419727 0)
(-0.0583801 0.41555 0)
(-0.0583801 0.41555 0)
(0.0329654 0.425374 0)
(0.0329654 0.425374 0)
(-0.0589435 0.421142 0)
(-0.0589435 0.421142 0)
(0.0330094 0.431061 0)
(0.0330094 0.431061 0)
(-0.0595105 0.426772 0)
(-0.0595105 0.426772 0)
(0.03305 0.436785 0)
(0.03305 0.436785 0)
(-0.0600809 0.432439 0)
(-0.0600809 0.432439 0)
(0.033087 0.442547 0)
(0.033087 0.442547 0)
(-0.0606548 0.438144 0)
(-0.0606548 0.438144 0)
(0.0331205 0.448347 0)
(0.0331205 0.448347 0)
(-0.0612322 0.443886 0)
(-0.0612322 0.443886 0)
(0.0331504 0.454184 0)
(0.0331504 0.454184 0)
(-0.0618131 0.449665 0)
(-0.0618131 0.449665 0)
(0.0331767 0.460059 0)
(0.0331767 0.460059 0)
(-0.0623976 0.455481 0)
(-0.0623976 0.455481 0)
(0.0331994 0.465972 0)
(0.0331994 0.465972 0)
(-0.0629857 0.461335 0)
(-0.0629857 0.461335 0)
(0.0332185 0.471922 0)
(0.0332185 0.471922 0)
(-0.0635774 0.467226 0)
(-0.0635774 0.467226 0)
(0.0332339 0.47791 0)
(0.0332339 0.47791 0)
(-0.0641727 0.473154 0)
(-0.0641727 0.473154 0)
(0.0332456 0.483935 0)
(0.0332456 0.483935 0)
(-0.0647716 0.47912 0)
(-0.0647716 0.47912 0)
(0.0332536 0.489999 0)
(0.0332536 0.489999 0)
(-0.0653743 0.485123 0)
(-0.0653743 0.485123 0)
(0.0332578 0.496099 0)
(0.0332578 0.496099 0)
(-0.0659806 0.491163 0)
(-0.0659806 0.491163 0)
(0.0332583 0.502242 0)
(0.0332583 0.502242 0)
(-0.066591 0.497245 0)
(-0.066591 0.497245 0)
(0.0332551 0.508412 0)
(0.0332551 0.508412 0)
(-0.0672042 0.503353 0)
(-0.0672042 0.503353 0)
(0.033248 0.51463 0)
(0.033248 0.51463 0)
(-0.0678221 0.509509 0)
(-0.0678221 0.509509 0)
(0.0332371 0.520875 0)
(0.0332371 0.520875 0)
(-0.0684429 0.515693 0)
(-0.0684429 0.515693 0)
(0.0332224 0.527169 0)
(0.0332224 0.527169 0)
(-0.0690684 0.521923 0)
(-0.0690684 0.521923 0)
(0.0332038 0.5335 0)
(0.0332038 0.5335 0)
(-0.0696978 0.528191 0)
(-0.0696978 0.528191 0)
(0.0331813 0.539858 0)
(0.0331813 0.539858 0)
(-0.07033 0.534486 0)
(-0.07033 0.534486 0)
(0.0331548 0.546264 0)
(0.0331548 0.546264 0)
(-0.0709671 0.540828 0)
(-0.0709671 0.540828 0)
(0.0331245 0.552697 0)
(0.0331245 0.552697 0)
(-0.0716071 0.547198 0)
(-0.0716071 0.547198 0)
(0.0330902 0.559179 0)
(0.0330902 0.559179 0)
(-0.0722521 0.553615 0)
(-0.0722521 0.553615 0)
(0.0330519 0.565687 0)
(0.0330519 0.565687 0)
(-0.0728999 0.560059 0)
(-0.0728999 0.560059 0)
(0.0330095 0.572244 0)
(0.0330095 0.572244 0)
(-0.0735528 0.56655 0)
(-0.0735528 0.56655 0)
(0.0329632 0.578839 0)
(0.0329632 0.578839 0)
(-0.0742096 0.573079 0)
(-0.0742096 0.573079 0)
(0.0329128 0.58546 0)
(0.0329128 0.58546 0)
(-0.0748694 0.579635 0)
(-0.0748694 0.579635 0)
(0.0328583 0.59213 0)
(0.0328583 0.59213 0)
(-0.0755343 0.586238 0)
(-0.0755343 0.586238 0)
(0.0327998 0.598826 0)
(0.0327998 0.598826 0)
(-0.0762022 0.592868 0)
(-0.0762022 0.592868 0)
(0.032737 0.605571 0)
(0.032737 0.605571 0)
(-0.0768753 0.599546 0)
(-0.0768753 0.599546 0)
(0.0326701 0.612354 0)
(0.0326701 0.612354 0)
(-0.0775525 0.606261 0)
(-0.0775525 0.606261 0)
(0.0325992 0.619163 0)
(0.0325992 0.619163 0)
(-0.0782327 0.613002 0)
(-0.0782327 0.613002 0)
(0.0325239 0.626021 0)
(0.0325239 0.626021 0)
(-0.0789182 0.619792 0)
(-0.0789182 0.619792 0)
(0.0324445 0.632905 0)
(0.0324445 0.632905 0)
(-0.0796067 0.626608 0)
(-0.0796067 0.626608 0)
(0.0323608 0.639839 0)
(0.0323608 0.639839 0)
(-0.0803005 0.633472 0)
(-0.0803005 0.633472 0)
(0.0322728 0.646809 0)
(0.0322728 0.646809 0)
(-0.0809986 0.640373 0)
(-0.0809986 0.640373 0)
(0.0321807 0.653806 0)
(0.0321807 0.653806 0)
(-0.0816998 0.647301 0)
(-0.0816998 0.647301 0)
(0.0320841 0.660852 0)
(0.0320841 0.660852 0)
(-0.0824063 0.654277 0)
(-0.0824063 0.654277 0)
(0.0319833 0.667924 0)
(0.0319833 0.667924 0)
(-0.0831161 0.661278 0)
(-0.0831161 0.661278 0)
(0.031878 0.675046 0)
(0.031878 0.675046 0)
(-0.0838312 0.668329 0)
(-0.0838312 0.668329 0)
(0.0317683 0.682205 0)
(0.0317683 0.682205 0)
(-0.0845508 0.675417 0)
(-0.0845508 0.675417 0)
(0.0316544 0.689389 0)
(0.0316544 0.689389 0)
(-0.0852735 0.68253 0)
(-0.0852735 0.68253 0)
(0.0315359 0.696623 0)
(0.0315359 0.696623 0)
(-0.0860018 0.689692 0)
(-0.0860018 0.689692 0)
(0.0314132 0.703883 0)
(0.0314132 0.703883 0)
(-0.0867332 0.696879 0)
(-0.0867332 0.696879 0)
(0.0312858 0.711193 0)
(0.0312858 0.711193 0)
(-0.0874703 0.704116 0)
(-0.0874703 0.704116 0)
(0.0311538 0.718539 0)
(0.0311538 0.718539 0)
(-0.0882119 0.71139 0)
(-0.0882119 0.71139 0)
(0.0310176 0.725912 0)
(0.0310176 0.725912 0)
(-0.0889567 0.718689 0)
(-0.0889567 0.718689 0)
(0.0308766 0.733334 0)
(0.0308766 0.733334 0)
(-0.0897072 0.726037 0)
(-0.0897072 0.726037 0)
(0.0307313 0.740781 0)
(0.0307313 0.740781 0)
(-0.0904611 0.733411 0)
(-0.0904611 0.733411 0)
(0.0305812 0.748279 0)
(0.0305812 0.748279 0)
(-0.0912207 0.740833 0)
(-0.0912207 0.740833 0)
(0.0304267 0.755801 0)
(0.0304267 0.755801 0)
(-0.0919836 0.748281 0)
(-0.0919836 0.748281 0)
(0.0302673 0.763374 0)
(0.0302673 0.763374 0)
(-0.0927523 0.755778 0)
(-0.0927523 0.755778 0)
(0.0301032 0.770984 0)
(0.0301032 0.770984 0)
(-0.0935257 0.763312 0)
(-0.0935257 0.763312 0)
(0.0299348 0.778619 0)
(0.0299348 0.778619 0)
(-0.0943024 0.770871 0)
(-0.0943024 0.770871 0)
(0.0297614 0.786304 0)
(0.0297614 0.786304 0)
(-0.095085 0.77848 0)
(-0.095085 0.77848 0)
(0.0295835 0.794014 0)
(0.0295835 0.794014 0)
(-0.0958711 0.786113 0)
(-0.0958711 0.786113 0)
(0.0294006 0.801774 0)
(0.0294006 0.801774 0)
(-0.0966631 0.793796 0)
(-0.0966631 0.793796 0)
(0.0292129 0.809572 0)
(0.0292129 0.809572 0)
(-0.0974599 0.801516 0)
(-0.0974599 0.801516 0)
(0.0290207 0.817394 0)
(0.0290207 0.817394 0)
(-0.0982601 0.809261 0)
(-0.0982601 0.809261 0)
(0.0288235 0.825267 0)
(0.0288235 0.825267 0)
(-0.0990664 0.817056 0)
(-0.0990664 0.817056 0)
(0.0286216 0.833165 0)
(0.0286216 0.833165 0)
(-0.0998761 0.824875 0)
(-0.0998761 0.824875 0)
(0.0284146 0.841113 0)
(0.0284146 0.841113 0)
(-0.100692 0.832744 0)
(-0.100692 0.832744 0)
(0.0282027 0.849099 0)
(0.0282027 0.849099 0)
(-0.101513 0.84065 0)
(-0.101513 0.84065 0)
(0.0279863 0.857109 0)
(0.0279863 0.857109 0)
(-0.102337 0.84858 0)
(-0.102337 0.84858 0)
(0.0277646 0.865169 0)
(0.0277646 0.865169 0)
(-0.103167 0.856561 0)
(-0.103167 0.856561 0)
(0.0275382 0.873254 0)
(0.0275382 0.873254 0)
(-0.104001 0.864565 0)
(-0.104001 0.864565 0)
(0.0273066 0.88139 0)
(0.0273066 0.88139 0)
(-0.104842 0.87262 0)
(-0.104842 0.87262 0)
(0.0270699 0.889563 0)
(0.0270699 0.889563 0)
(-0.105687 0.880712 0)
(-0.105687 0.880712 0)
(0.0268286 0.897761 0)
(0.0268286 0.897761 0)
(-0.106536 0.888828 0)
(-0.106536 0.888828 0)
(0.0265818 0.906009 0)
(0.0265818 0.906009 0)
(-0.107391 0.896994 0)
(-0.107391 0.896994 0)
(0.0263304 0.914281 0)
(0.0263304 0.914281 0)
(-0.10825 0.905184 0)
(-0.10825 0.905184 0)
(0.0260735 0.922604 0)
(0.0260735 0.922604 0)
(-0.109115 0.913424 0)
(-0.109115 0.913424 0)
(0.0258119 0.930952 0)
(0.0258119 0.930952 0)
(-0.109984 0.921688 0)
(-0.109984 0.921688 0)
(0.0255447 0.93935 0)
(0.0255447 0.93935 0)
(-0.11086 0.930003 0)
(-0.11086 0.930003 0)
(0.0252723 0.947786 0)
(0.0252723 0.947786 0)
(-0.11174 0.938355 0)
(-0.11174 0.938355 0)
(0.0249952 0.956245 0)
(0.0249952 0.956245 0)
(-0.112625 0.946731 0)
(-0.112625 0.946731 0)
(0.0247125 0.964756 0)
(0.0247125 0.964756 0)
(-0.113516 0.955157 0)
(-0.113516 0.955157 0)
(0.024425 0.973291 0)
(0.024425 0.973291 0)
(-0.11441 0.963606 0)
(-0.11441 0.963606 0)
(0.0241318 0.981877 0)
(0.0241318 0.981877 0)
(-0.115311 0.972107 0)
(-0.115311 0.972107 0)
(0.0238332 0.9905 0)
(0.0238332 0.9905 0)
(-0.116218 0.980644 0)
(-0.116218 0.980644 0)
(0.0235299 0.999147 0)
(0.0235299 0.999147 0)
(-0.117128 0.989205 0)
(-0.117128 0.989205 0)
(0.0232208 1.00785 0)
(0.0232208 1.00785 0)
(-0.118045 0.997817 0)
(-0.118045 0.997817 0)
(0.0229068 1.01657 0)
(0.0229068 1.01657 0)
(-0.118966 1.00645 0)
(-0.118966 1.00645 0)
(0.0225869 1.02534 0)
(0.0225869 1.02534 0)
(-0.119894 1.01514 0)
(-0.119894 1.01514 0)
(0.0222617 1.03415 0)
(0.0222617 1.03415 0)
(-0.120827 1.02386 0)
(-0.120827 1.02386 0)
(0.0219315 1.04298 0)
(0.0219315 1.04298 0)
(-0.121763 1.03261 0)
(-0.121763 1.03261 0)
(0.0215954 1.05187 0)
(0.0215954 1.05187 0)
(-0.122707 1.0414 0)
(-0.122707 1.0414 0)
(0.0212544 1.06078 0)
(0.0212544 1.06078 0)
(-0.123655 1.05022 0)
(-0.123655 1.05022 0)
(0.0209073 1.06974 0)
(0.0209073 1.06974 0)
(-0.124609 1.0591 0)
(-0.124609 1.0591 0)
(0.0205547 1.07874 0)
(0.0205547 1.07874 0)
(-0.125569 1.068 0)
(-0.125569 1.068 0)
(0.0201972 1.08776 0)
(0.0201972 1.08776 0)
(-0.126533 1.07694 0)
(-0.126533 1.07694 0)
(0.0198335 1.09683 0)
(0.0198335 1.09683 0)
(-0.127504 1.08592 0)
(-0.127504 1.08592 0)
(0.0194649 1.10593 0)
(0.0194649 1.10593 0)
(-0.128479 1.09492 0)
(-0.128479 1.09492 0)
(0.01909 1.11508 0)
(0.01909 1.11508 0)
(-0.129461 1.10398 0)
(-0.129461 1.10398 0)
(0.0187096 1.12426 0)
(0.0187096 1.12426 0)
(-0.130449 1.11307 0)
(-0.130449 1.11307 0)
(0.0183241 1.13347 0)
(0.0183241 1.13347 0)
(-0.13144 1.12219 0)
(-0.13144 1.12219 0)
(0.0179323 1.14273 0)
(0.0179323 1.14273 0)
(-0.132439 1.13136 0)
(-0.132439 1.13136 0)
(0.0175355 1.15201 0)
(0.0175355 1.15201 0)
(-0.133442 1.14055 0)
(-0.133442 1.14055 0)
(0.0171323 1.16135 0)
(0.0171323 1.16135 0)
(-0.134452 1.14979 0)
(-0.134452 1.14979 0)
(0.016724 1.1707 0)
(0.016724 1.1707 0)
(-0.135466 1.15905 0)
(-0.135466 1.15905 0)
(0.0163093 1.18011 0)
(0.0163093 1.18011 0)
(-0.136488 1.16837 0)
(-0.136488 1.16837 0)
(0.0158888 1.18956 0)
(0.0158888 1.18956 0)
(-0.137515 1.17772 0)
(-0.137515 1.17772 0)
(0.0154632 1.19903 0)
(0.0154632 1.19903 0)
(-0.138546 1.1871 0)
(-0.138546 1.1871 0)
(0.0150311 1.20855 0)
(0.0150311 1.20855 0)
(-0.139585 1.19653 0)
(-0.139585 1.19653 0)
(0.0145938 1.2181 0)
(0.0145938 1.2181 0)
(-0.140628 1.20598 0)
(-0.140628 1.20598 0)
(0.0141499 1.22769 0)
(0.0141499 1.22769 0)
(-0.141678 1.21548 0)
(-0.141678 1.21548 0)
(0.0137002 1.23733 0)
(0.0137002 1.23733 0)
(-0.142735 1.22502 0)
(-0.142735 1.22502 0)
(0.0132452 1.24698 0)
(0.0132452 1.24698 0)
(-0.143795 1.23458 0)
(-0.143795 1.23458 0)
(0.0127836 1.25669 0)
(0.0127836 1.25669 0)
(-0.144863 1.24419 0)
(-0.144863 1.24419 0)
(0.0123168 1.26642 0)
(0.0123168 1.26642 0)
(-0.145935 1.25382 0)
(-0.145935 1.25382 0)
(0.0118432 1.27621 0)
(0.0118432 1.27621 0)
(-0.147015 1.26351 0)
(-0.147015 1.26351 0)
(0.0113636 1.28603 0)
(0.0113636 1.28603 0)
(-0.148101 1.27323 0)
(-0.148101 1.27323 0)
(0.0108787 1.29587 0)
(0.0108787 1.29587 0)
(-0.149191 1.28298 0)
(-0.149191 1.28298 0)
(0.010387 1.30577 0)
(0.010387 1.30577 0)
(-0.150288 1.29278 0)
(-0.150288 1.29278 0)
(0.00989007 1.31569 0)
(0.00989007 1.31569 0)
(-0.15139 1.30259 0)
(-0.15139 1.30259 0)
(0.00938618 1.32566 0)
(0.00938618 1.32566 0)
(-0.1525 1.31247 0)
(-0.1525 1.31247 0)
(0.00887616 1.33566 0)
(0.00887616 1.33566 0)
(-0.153616 1.32237 0)
(-0.153616 1.32237 0)
(0.00836082 1.34569 0)
(0.00836082 1.34569 0)
(-0.154736 1.3323 0)
(-0.154736 1.3323 0)
(0.00783847 1.35578 0)
(0.00783847 1.35578 0)
(-0.155864 1.34229 0)
(-0.155864 1.34229 0)
(0.00731079 1.36588 0)
(0.00731079 1.36588 0)
(-0.156997 1.35229 0)
(-0.156997 1.35229 0)
(0.00677602 1.37604 0)
(0.00677602 1.37604 0)
(-0.158137 1.36235 0)
(-0.158137 1.36235 0)
(0.006235 1.38623 0)
(0.006235 1.38623 0)
(-0.159284 1.37244 0)
(-0.159284 1.37244 0)
(0.00568861 1.39645 0)
(0.00568861 1.39645 0)
(-0.160435 1.38255 0)
(-0.160435 1.38255 0)
(0.00513504 1.40672 0)
(0.00513504 1.40672 0)
(-0.161594 1.39272 0)
(-0.161594 1.39272 0)
(0.00457607 1.41701 0)
(0.00457607 1.41701 0)
(-0.162757 1.40291 0)
(-0.162757 1.40291 0)
(0.00400986 1.42735 0)
(0.00400986 1.42735 0)
(-0.163929 1.41315 0)
(-0.163929 1.41315 0)
(0.00343822 1.43772 0)
(0.00343822 1.43772 0)
(-0.165104 1.42341 0)
(-0.165104 1.42341 0)
(0.00285926 1.44814 0)
(0.00285926 1.44814 0)
(-0.166289 1.43373 0)
(-0.166289 1.43373 0)
(0.0022739 1.45859 0)
(0.0022739 1.45859 0)
(-0.167479 1.44408 0)
(-0.167479 1.44408 0)
(0.00168307 1.46907 0)
(0.00168307 1.46907 0)
(-0.168674 1.45445 0)
(-0.168674 1.45445 0)
(0.00108483 1.4796 0)
(0.00108483 1.4796 0)
(-0.169877 1.46488 0)
(-0.169877 1.46488 0)
(0.000481103 1.49015 0)
(0.000481103 1.49015 0)
(-0.171085 1.47532 0)
(-0.171085 1.47532 0)
(-0.000130104 1.50076 0)
(-0.000130104 1.50076 0)
(-0.172301 1.48582 0)
(-0.172301 1.48582 0)
(-0.000747833 1.5114 0)
(-0.000747833 1.5114 0)
(-0.173524 1.49636 0)
(-0.173524 1.49636 0)
(-0.00137109 1.52206 0)
(-0.00137109 1.52206 0)
(-0.174751 1.50692 0)
(-0.174751 1.50692 0)
(-0.00200192 1.53278 0)
(-0.00200192 1.53278 0)
(-0.175986 1.51753 0)
(-0.175986 1.51753 0)
(-0.0026383 1.54352 0)
(-0.0026383 1.54352 0)
(-0.177226 1.52816 0)
(-0.177226 1.52816 0)
(-0.00328234 1.55431 0)
(-0.00328234 1.55431 0)
(-0.178475 1.53884 0)
(-0.178475 1.53884 0)
(-0.003933 1.56514 0)
(-0.003933 1.56514 0)
(-0.17973 1.54956 0)
(-0.17973 1.54956 0)
(-0.00458926 1.57599 0)
(-0.00458926 1.57599 0)
(-0.180989 1.5603 0)
(-0.180989 1.5603 0)
(-0.00525326 1.58689 0)
(-0.00525326 1.58689 0)
(-0.182258 1.5711 0)
(-0.182258 1.5711 0)
(-0.00592287 1.59781 0)
(-0.00592287 1.59781 0)
(-0.183531 1.58191 0)
(-0.183531 1.58191 0)
(-0.00660029 1.60879 0)
(-0.00660029 1.60879 0)
(-0.184812 1.59278 0)
(-0.184812 1.59278 0)
(-0.00728447 1.61981 0)
(-0.00728447 1.61981 0)
(-0.186101 1.60369 0)
(-0.186101 1.60369 0)
(-0.00797429 1.63084 0)
(-0.00797429 1.63084 0)
(-0.187393 1.61461 0)
(-0.187393 1.61461 0)
(-0.00867203 1.64193 0)
(-0.00867203 1.64193 0)
(-0.188695 1.62559 0)
(-0.188695 1.62559 0)
(-0.00937544 1.65304 0)
(-0.00937544 1.65304 0)
(-0.190002 1.63659 0)
(-0.190002 1.63659 0)
(-0.0100868 1.66421 0)
(-0.0100868 1.66421 0)
(-0.191317 1.64765 0)
(-0.191317 1.64765 0)
(-0.0108051 1.67541 0)
(-0.0108051 1.67541 0)
(-0.192639 1.65874 0)
(-0.192639 1.65874 0)
(-0.0115291 1.68663 0)
(-0.0115291 1.68663 0)
(-0.193966 1.66985 0)
(-0.193966 1.66985 0)
(-0.0122611 1.6979 0)
(-0.0122611 1.6979 0)
(-0.195301 1.68101 0)
(-0.195301 1.68101 0)
(-0.0129989 1.7092 0)
(-0.0129989 1.7092 0)
(-0.196642 1.69219 0)
(-0.196642 1.69219 0)
(-0.0137448 1.72055 0)
(-0.0137448 1.72055 0)
(-0.197991 1.70343 0)
(-0.197991 1.70343 0)
(-0.0144965 1.73192 0)
(-0.0144965 1.73192 0)
(-0.199345 1.71469 0)
(-0.199345 1.71469 0)
(-0.0152564 1.74334 0)
(-0.0152564 1.74334 0)
(-0.200709 1.726 0)
(-0.200709 1.726 0)
(-0.0160233 1.75481 0)
(-0.0160233 1.75481 0)
(-0.202079 1.73735 0)
(-0.202079 1.73735 0)
(-0.016796 1.76629 0)
(-0.016796 1.76629 0)
(-0.203454 1.74871 0)
(-0.203454 1.74871 0)
(-0.0175771 1.77782 0)
(-0.0175771 1.77782 0)
(-0.204838 1.76013 0)
(-0.204838 1.76013 0)
(-0.0183639 1.78938 0)
(-0.0183639 1.78938 0)
(-0.206227 1.77157 0)
(-0.206227 1.77157 0)
(-0.0191592 1.80099 0)
(-0.0191592 1.80099 0)
(-0.207625 1.78307 0)
(-0.207625 1.78307 0)
(-0.0199616 1.81264 0)
(-0.0199616 1.81264 0)
(-0.209031 1.7946 0)
(-0.209031 1.7946 0)
(-0.0207698 1.82431 0)
(-0.0207698 1.82431 0)
(-0.210441 1.80615 0)