/*--------------------------------*- C++ -*----------------------------------*\
| =========                 |                                                 |
| \\      /  F ield         | foam-extend: Open Source CFD                    |
|  \\    /   O peration     | Version:     4.1                                |
|   \\  /    A nd           | Web:         http://www.foam-extend.org         |
|    \\/     M anipulation  |                                                 |
\*---------------------------------------------------------------------------*/
FoamFile
{
    version     2.0;
    format      ascii;
    class       volTensorField;
    location    "0";
    object      refRM;
}
// * * * * * * * * * * * * * * * * * * * * * * * * * * * * * * * * * * * * * //

dimensions      [0 0 0 0 0 0 0];

internalField   nonuniform List<tensor> 
1280
(
(1 -0.000306796 0 0.000306796 1 0 0 0 1)
(1 -0.000920386 0 0.000920386 1 0 0 0 1)
(0.999999 -0.00153398 0 0.00153398 0.999999 0 0 0 1)
(0.999998 -0.00214757 0 0.00214757 0.999998 0 0 0 1)
(0.999996 -0.00276116 0 0.00276116 0.999996 0 0 0 1)
(0.999994 -0.00337475 0 0.00337475 0.999994 0 0 0 1)
(0.999992 -0.00398834 0 0.00398834 0.999992 0 0 0 1)
(0.999989 -0.00460193 0 0.00460193 0.999989 0 0 0 1)
(0.999986 -0.00521551 0 0.00521551 0.999986 0 0 0 1)
(0.999983 -0.00582909 0 0.00582909 0.999983 0 0 0 1)
(0.999979 -0.00644268 0 0.00644268 0.999979 0 0 0 1)
(0.999975 -0.00705626 0 0.00705626 0.999975 0 0 0 1)
(0.999971 -0.00766983 0 0.00766983 0.999971 0 0 0 1)
(0.999966 -0.0082834 0 0.0082834 0.999966 0 0 0 1)
(0.99996 -0.00889697 0 0.00889697 0.99996 0 0 0 1)
(0.999955 -0.00951054 0 0.00951054 0.999955 0 0 0 1)
(0.999949 -0.0101241 0 0.0101241 0.999949 0 0 0 1)
(0.999942 -0.0107377 0 0.0107377 0.999942 0 0 0 1)
(0.999936 -0.0113513 0 0.0113513 0.999936 0 0 0 1)
(0.999928 -0.0119648 0 0.0119648 0.999928 0 0 0 1)
(0.999921 -0.0125783 0 0.0125783 0.999921 0 0 0 1)
(0.999913 -0.0131918 0 0.0131918 0.999913 0 0 0 1)
(0.999905 -0.0138054 0 0.0138054 0.999905 0 0 0 1)
(0.999896 -0.0144189 0 0.0144189 0.999896 0 0 0 1)
(0.999887 -0.0150324 0 0.0150324 0.999887 0 0 0 1)
(0.999878 -0.015646 0 0.015646 0.999878 0 0 0 1)
(0.999868 -0.0162595 0 0.0162595 0.999868 0 0 0 1)
(0.999858 -0.016873 0 0.016873 0.999858 0 0 0 1)
(0.999847 -0.0174865 0 0.0174865 0.999847 0 0 0 1)
(0.999836 -0.0181 0 0.0181 0.999836 0 0 0 1)
(0.999825 -0.0187135 0 0.0187135 0.999825 0 0 0 1)
(0.999813 -0.019327 0 0.019327 0.999813 0 0 0 1)
(0.999801 -0.0199404 0 0.0199404 0.999801 0 0 0 1)
(0.999789 -0.0205539 0 0.0205539 0.999789 0 0 0 1)
(0.999776 -0.0211673 0 0.0211673 0.999776 0 0 0 1)
(0.999763 -0.0217808 0 0.0217808 0.999763 0 0 0 1)
(0.999749 -0.0223942 0 0.0223942 0.999749 0 0 0 1)
(0.999735 -0.0230077 0 0.0230077 0.999735 0 0 0 1)
(0.999721 -0.0236211 0 0.0236211 0.999721 0 0 0 1)
(0.999706 -0.0242345 0 0.0242345 0.999706 0 0 0 1)
(0.999691 -0.0248479 0 0.0248479 0.999691 0 0 0 1)
(0.999676 -0.0254614 0 0.0254614 0.999676 0 0 0 1)
(0.99966 -0.0260747 0 0.0260747 0.99966 0 0 0 1)
(0.999644 -0.0266881 0 0.0266881 0.999644 0 0 0 1)
(0.999627 -0.0273015 0 0.0273015 0.999627 0 0 0 1)
(0.99961 -0.0279148 0 0.0279148 0.99961 0 0 0 1)
(0.999593 -0.0285281 0 0.0285281 0.999593 0 0 0 1)
(0.999575 -0.0291415 0 0.0291415 0.999575 0 0 0 1)
(0.999557 -0.0297548 0 0.0297548 0.999557 0 0 0 1)
(0.999539 -0.0303681 0 0.0303681 0.999539 0 0 0 1)
(0.99952 -0.0309814 0 0.0309814 0.99952 0 0 0 1)
(0.999501 -0.0315947 0 0.0315947 0.999501 0 0 0 1)
(0.999481 -0.032208 0 0.032208 0.999481 0 0 0 1)
(0.999461 -0.0328213 0 0.0328213 0.999461 0 0 0 1)
(0.999441 -0.0334346 0 0.0334346 0.999441 0 0 0 1)
(0.99942 -0.0340478 0 0.0340478 0.99942 0 0 0 1)
(0.999399 -0.0346611 0 0.0346611 0.999399 0 0 0 1)
(0.999378 -0.0352743 0 0.0352743 0.999378 0 0 0 1)
(0.999356 -0.0358874 0 0.0358874 0.999356 0 0 0 1)
(0.999334 -0.0365006 0 0.0365006 0.999334 0 0 0 1)
(0.999311 -0.0371138 0 0.0371138 0.999311 0 0 0 1)
(0.999288 -0.037727 0 0.037727 0.999288 0 0 0 1)
(0.999265 -0.0383401 0 0.0383401 0.999265 0 0 0 1)
(0.999241 -0.0389533 0 0.0389533 0.999241 0 0 0 1)
(0.999217 -0.0395664 0 0.0395664 0.999217 0 0 0 1)
(0.999192 -0.0401795 0 0.0401795 0.999192 0 0 0 1)
(0.999168 -0.0407926 0 0.0407926 0.999168 0 0 0 1)
(0.999142 -0.0414057 0 0.0414057 0.999142 0 0 0 1)
(0.999117 -0.0420187 0 0.0420187 0.999117 0 0 0 1)
(0.999091 -0.0426318 0 0.0426318 0.999091 0 0 0 1)
(0.999065 -0.0432448 0 0.0432448 0.999065 0 0 0 1)
(0.999038 -0.0438578 0 0.0438578 0.999038 0 0 0 1)
(0.999011 -0.0444707 0 0.0444707 0.999011 0 0 0 1)
(0.998983 -0.0450837 0 0.0450837 0.998983 0 0 0 1)
(0.998955 -0.0456967 0 0.0456967 0.998955 0 0 0 1)
(0.998927 -0.0463096 0 0.0463096 0.998927 0 0 0 1)
(0.998899 -0.0469226 0 0.0469226 0.998899 0 0 0 1)
(0.99887 -0.0475355 0 0.0475355 0.99887 0 0 0 1)
(0.99884 -0.0481484 0 0.0481484 0.99884 0 0 0 1)
(0.99881 -0.0487613 0 0.0487613 0.99881 0 0 0 1)
(0.99878 -0.0493741 0 0.0493741 0.99878 0 0 0 1)
(0.99875 -0.049987 0 0.049987 0.99875 0 0 0 1)
(0.998719 -0.0505998 0 0.0505998 0.998719 0 0 0 1)
(0.998688 -0.0512126 0 0.0512126 0.998688 0 0 0 1)
(0.998656 -0.0518253 0 0.0518253 0.998656 0 0 0 1)
(0.998624 -0.052438 0 0.052438 0.998624 0 0 0 1)
(0.998592 -0.0530508 0 0.0530508 0.998592 0 0 0 1)
(0.998559 -0.0536635 0 0.0536635 0.998559 0 0 0 1)
(0.998526 -0.0542762 0 0.0542762 0.998526 0 0 0 1)
(0.998492 -0.0548889 0 0.0548889 0.998492 0 0 0 1)
(0.998459 -0.0555016 0 0.0555016 0.998459 0 0 0 1)
(0.998424 -0.0561142 0 0.0561142 0.998424 0 0 0 1)
(0.99839 -0.0567268 0 0.0567268 0.99839 0 0 0 1)
(0.998355 -0.0573394 0 0.0573394 0.998355 0 0 0 1)
(0.998319 -0.057952 0 0.057952 0.998319 0 0 0 1)
(0.998284 -0.0585646 0 0.0585646 0.998284 0 0 0 1)
(0.998247 -0.0591771 0 0.0591771 0.998247 0 0 0 1)
(0.998211 -0.0597896 0 0.0597896 0.998211 0 0 0 1)
(0.998174 -0.060402 0 0.060402 0.998174 0 0 0 1)
(0.998137 -0.0610145 0 0.0610145 0.998137 0 0 0 1)
(0.998099 -0.0616269 0 0.0616269 0.998099 0 0 0 1)
(0.998061 -0.0622394 0 0.0622394 0.998061 0 0 0 1)
(0.998023 -0.0628518 0 0.0628518 0.998023 0 0 0 1)
(0.997984 -0.0634641 0 0.0634641 0.997984 0 0 0 1)
(0.997945 -0.0640765 0 0.0640765 0.997945 0 0 0 1)
(0.997905 -0.0646888 0 0.0646888 0.997905 0 0 0 1)
(0.997866 -0.0653011 0 0.0653011 0.997866 0 0 0 1)
(0.997825 -0.0659134 0 0.0659134 0.997825 0 0 0 1)
(0.997785 -0.0665256 0 0.0665256 0.997785 0 0 0 1)
(0.997744 -0.0671379 0 0.0671379 0.997744 0 0 0 1)
(0.997702 -0.06775 0 0.06775 0.997702 0 0 0 1)
(0.997661 -0.0683622 0 0.0683622 0.997661 0 0 0 1)
(0.997618 -0.0689743 0 0.0689743 0.997618 0 0 0 1)
(0.997576 -0.0695864 0 0.0695864 0.997576 0 0 0 1)
(0.997533 -0.0701985 0 0.0701985 0.997533 0 0 0 1)
(0.99749 -0.0708106 0 0.0708106 0.99749 0 0 0 1)
(0.997446 -0.0714227 0 0.0714227 0.997446 0 0 0 1)
(0.997402 -0.0720347 0 0.0720347 0.997402 0 0 0 1)
(0.997358 -0.0726467 0 0.0726467 0.997358 0 0 0 1)
(0.997313 -0.0732586 0 0.0732586 0.997313 0 0 0 1)
(0.997268 -0.0738706 0 0.0738706 0.997268 0 0 0 1)
(0.997222 -0.0744825 0 0.0744825 0.997222 0 0 0 1)
(0.997176 -0.0750944 0 0.0750944 0.997176 0 0 0 1)
(0.99713 -0.0757062 0 0.0757062 0.99713 0 0 0 1)
(0.997084 -0.0763179 0 0.0763179 0.997084 0 0 0 1)
(0.997037 -0.0769297 0 0.0769297 0.997037 0 0 0 1)
(0.996989 -0.0775415 0 0.0775415 0.996989 0 0 0 1)
(0.996941 -0.0781532 0 0.0781532 0.996941 0 0 0 1)
(0.996893 -0.0787649 0 0.0787649 0.996893 0 0 0 1)
(0.996845 -0.0793766 0 0.0793766 0.996845 0 0 0 1)
(0.996796 -0.0799883 0 0.0799883 0.996796 0 0 0 1)
(0.996747 -0.0805999 0 0.0805999 0.996747 0 0 0 1)
(0.996697 -0.0812115 0 0.0812115 0.996697 0 0 0 1)
(0.996647 -0.081823 0 0.081823 0.996647 0 0 0 1)
(0.996596 -0.0824346 0 0.0824346 0.996596 0 0 0 1)
(0.996546 -0.0830461 0 0.0830461 0.996546 0 0 0 1)
(0.996495 -0.0836575 0 0.0836575 0.996495 0 0 0 1)
(0.996443 -0.0842689 0 0.0842689 0.996443 0 0 0 1)
(0.996391 -0.0848803 0 0.0848803 0.996391 0 0 0 1)
(0.996339 -0.0854916 0 0.0854916 0.996339 0 0 0 1)
(0.996286 -0.086103 0 0.086103 0.996286 0 0 0 1)
(0.996233 -0.0867143 0 0.0867143 0.996233 0 0 0 1)
(0.99618 -0.0873255 0 0.0873255 0.99618 0 0 0 1)
(0.996126 -0.0879368 0 0.0879368 0.996126 0 0 0 1)
(0.996072 -0.088548 0 0.088548 0.996072 0 0 0 1)
(0.996017 -0.0891592 0 0.0891592 0.996017 0 0 0 1)
(0.995962 -0.0897703 0 0.0897703 0.995962 0 0 0 1)
(0.995907 -0.0903814 0 0.0903814 0.995907 0 0 0 1)
(0.995852 -0.0909925 0 0.0909925 0.995852 0 0 0 1)
(0.995796 -0.0916035 0 0.0916035 0.995796 0 0 0 1)
(0.995739 -0.0922144 0 0.0922144 0.995739 0 0 0 1)
(0.995682 -0.0928254 0 0.0928254 0.995682 0 0 0 1)
(0.995625 -0.0934363 0 0.0934363 0.995625 0 0 0 1)
(0.995568 -0.0940472 0 0.0940472 0.995568 0 0 0 1)
(0.99551 -0.0946581 0 0.0946581 0.99551 0 0 0 1)
(0.995452 -0.0952689 0 0.0952689 0.995452 0 0 0 1)
(0.995393 -0.0958797 0 0.0958797 0.995393 0 0 0 1)
(0.995334 -0.0964905 0 0.0964905 0.995334 0 0 0 1)
(0.995275 -0.0971012 0 0.0971012 0.995275 0 0 0 1)
(0.995215 -0.0977119 0 0.0977119 0.995215 0 0 0 1)
(0.995155 -0.0983225 0 0.0983225 0.995155 0 0 0 1)
(0.995094 -0.0989331 0 0.0989331 0.995094 0 0 0 1)
(0.995033 -0.0995439 0 0.0995439 0.995033 0 0 0 1)
(0.994972 -0.100154 0 0.100154 0.994972 0 0 0 1)
(0.99491 -0.100765 0 0.100765 0.99491 0 0 0 1)
(0.994848 -0.101375 0 0.101375 0.994848 0 0 0 1)
(0.994786 -0.101985 0 0.101985 0.994786 0 0 0 1)
(0.994723 -0.102596 0 0.102596 0.994723 0 0 0 1)
(0.99466 -0.103206 0 0.103206 0.99466 0 0 0 1)
(0.994596 -0.103817 0 0.103817 0.994596 0 0 0 1)
(0.994533 -0.104427 0 0.104427 0.994533 0 0 0 1)
(0.994468 -0.105037 0 0.105037 0.994468 0 0 0 1)
(0.994404 -0.105647 0 0.105647 0.994404 0 0 0 1)
(0.994339 -0.106257 0 0.106257 0.994339 0 0 0 1)
(0.994273 -0.106868 0 0.106868 0.994273 0 0 0 1)
(0.994208 -0.107478 0 0.107478 0.994208 0 0 0 1)
(0.994141 -0.108087 0 0.108087 0.994141 0 0 0 1)
(0.994075 -0.108697 0 0.108697 0.994075 0 0 0 1)
(0.994008 -0.109307 0 0.109307 0.994008 0 0 0 1)
(0.993941 -0.109917 0 0.109917 0.993941 0 0 0 1)
(0.993873 -0.110527 0 0.110527 0.993873 0 0 0 1)
(0.993805 -0.111137 0 0.111137 0.993805 0 0 0 1)
(0.993737 -0.111747 0 0.111747 0.993737 0 0 0 1)
(0.993668 -0.112356 0 0.112356 0.993668 0 0 0 1)
(0.993599 -0.112966 0 0.112966 0.993599 0 0 0 1)
(0.993529 -0.113576 0 0.113576 0.993529 0 0 0 1)
(0.993459 -0.114185 0 0.114185 0.993459 0 0 0 1)
(0.993389 -0.114795 0 0.114795 0.993389 0 0 0 1)
(0.993319 -0.115404 0 0.115404 0.993319 0 0 0 1)
(0.993248 -0.116014 0 0.116014 0.993248 0 0 0 1)
(0.993176 -0.116624 0 0.116624 0.993176 0 0 0 1)
(0.993104 -0.117233 0 0.117233 0.993104 0 0 0 1)
(0.993032 -0.117842 0 0.117842 0.993032 0 0 0 1)
(0.99296 -0.118451 0 0.118451 0.99296 0 0 0 1)
(0.992887 -0.119061 0 0.119061 0.992887 0 0 0 1)
(0.992814 -0.11967 0 0.11967 0.992814 0 0 0 1)
(0.99274 -0.120279 0 0.120279 0.99274 0 0 0 1)
(0.992666 -0.120888 0 0.120888 0.992666 0 0 0 1)
(0.992592 -0.121497 0 0.121497 0.992592 0 0 0 1)
(0.992517 -0.122106 0 0.122106 0.992517 0 0 0 1)
(0.992442 -0.122715 0 0.122715 0.992442 0 0 0 1)
(0.992366 -0.123324 0 0.123324 0.992366 0 0 0 1)
(0.992291 -0.123933 0 0.123933 0.992291 0 0 0 1)
(0.992214 -0.124542 0 0.124542 0.992214 0 0 0 1)
(0.992138 -0.125151 0 0.125151 0.992138 0 0 0 1)
(0.992061 -0.125759 0 0.125759 0.992061 0 0 0 1)
(0.991983 -0.126368 0 0.126368 0.991983 0 0 0 1)
(0.991906 -0.126977 0 0.126977 0.991906 0 0 0 1)
(0.991828 -0.127585 0 0.127585 0.991828 0 0 0 1)
(0.991749 -0.128194 0 0.128194 0.991749 0 0 0 1)
(0.99167 -0.128802 0 0.128802 0.99167 0 0 0 1)
(0.991591 -0.129411 0 0.129411 0.991591 0 0 0 1)
(0.991511 -0.130019 0 0.130019 0.991511 0 0 0 1)
(0.991431 -0.130628 0 0.130628 0.991431 0 0 0 1)
(0.991351 -0.131236 0 0.131236 0.991351 0 0 0 1)
(0.99127 -0.131844 0 0.131844 0.99127 0 0 0 1)
(0.991189 -0.132453 0 0.132453 0.991189 0 0 0 1)
(0.991108 -0.133061 0 0.133061 0.991108 0 0 0 1)
(0.991026 -0.133669 0 0.133669 0.991026 0 0 0 1)
(0.990944 -0.134277 0 0.134277 0.990944 0 0 0 1)
(0.990861 -0.134885 0 0.134885 0.990861 0 0 0 1)
(0.990778 -0.135492 0 0.135492 0.990778 0 0 0 1)
(0.990695 -0.1361 0 0.1361 0.990695 0 0 0 1)
(0.990611 -0.136709 0 0.136709 0.990611 0 0 0 1)
(0.990527 -0.137316 0 0.137316 0.990527 0 0 0 1)
(0.990443 -0.137924 0 0.137924 0.990443 0 0 0 1)
(0.990358 -0.138532 0 0.138532 0.990358 0 0 0 1)
(0.990273 -0.139139 0 0.139139 0.990273 0 0 0 1)
(0.990187 -0.139747 0 0.139747 0.990187 0 0 0 1)
(0.990101 -0.140355 0 0.140355 0.990101 0 0 0 1)
(0.990015 -0.140962 0 0.140962 0.990015 0 0 0 1)
(0.989928 -0.141569 0 0.141569 0.989928 0 0 0 1)
(0.989841 -0.142177 0 0.142177 0.989841 0 0 0 1)
(0.989754 -0.142784 0 0.142784 0.989754 0 0 0 1)
(0.989666 -0.143392 0 0.143392 0.989666 0 0 0 1)
(0.989578 -0.143999 0 0.143999 0.989578 0 0 0 1)
(0.989489 -0.144606 0 0.144606 0.989489 0 0 0 1)
(0.9894 -0.145213 0 0.145213 0.9894 0 0 0 1)
(0.989311 -0.14582 0 0.14582 0.989311 0 0 0 1)
(0.989221 -0.146427 0 0.146427 0.989221 0 0 0 1)
(0.989131 -0.147034 0 0.147034 0.989131 0 0 0 1)
(0.989041 -0.147641 0 0.147641 0.989041 0 0 0 1)
(0.98895 -0.148248 0 0.148248 0.98895 0 0 0 1)
(0.988859 -0.148855 0 0.148855 0.988859 0 0 0 1)
(0.988768 -0.149461 0 0.149461 0.988768 0 0 0 1)
(0.988676 -0.150068 0 0.150068 0.988676 0 0 0 1)
(0.988583 -0.150675 0 0.150675 0.988583 0 0 0 1)
(0.988491 -0.151281 0 0.151281 0.988491 0 0 0 1)
(0.988398 -0.151887 0 0.151887 0.988398 0 0 0 1)
(0.988304 -0.152494 0 0.152494 0.988304 0 0 0 1)
(0.988211 -0.153101 0 0.153101 0.988211 0 0 0 1)
(0.988117 -0.153707 0 0.153707 0.988117 0 0 0 1)
(0.988022 -0.154313 0 0.154313 0.988022 0 0 0 1)
(0.987927 -0.154919 0 0.154919 0.987927 0 0 0 1)
(0.987832 -0.155525 0 0.155525 0.987832 0 0 0 1)
(0.987736 -0.156132 0 0.156132 0.987736 0 0 0 1)
(0.98764 -0.156738 0 0.156738 0.98764 0 0 0 1)
(0.987544 -0.157343 0 0.157343 0.987544 0 0 0 1)
(0.987447 -0.157949 0 0.157949 0.987447 0 0 0 1)
(0.98735 -0.158555 0 0.158555 0.98735 0 0 0 1)
(0.987253 -0.159161 0 0.159161 0.987253 0 0 0 1)
(0.987155 -0.159767 0 0.159767 0.987155 0 0 0 1)
(0.987057 -0.160373 0 0.160373 0.987057 0 0 0 1)
(0.986958 -0.160978 0 0.160978 0.986958 0 0 0 1)
(0.986859 -0.161584 0 0.161584 0.986859 0 0 0 1)
(0.98676 -0.162189 0 0.162189 0.98676 0 0 0 1)
(0.98666 -0.162795 0 0.162795 0.98666 0 0 0 1)
(0.98656 -0.1634 0 0.1634 0.98656 0 0 0 1)
(0.986459 -0.164005 0 0.164005 0.986459 0 0 0 1)
(0.986359 -0.16461 0 0.16461 0.986359 0 0 0 1)
(0.986257 -0.165216 0 0.165216 0.986257 0 0 0 1)
(0.986156 -0.165821 0 0.165821 0.986156 0 0 0 1)
(0.986054 -0.166426 0 0.166426 0.986054 0 0 0 1)
(0.985952 -0.167031 0 0.167031 0.985952 0 0 0 1)
(0.985849 -0.167636 0 0.167636 0.985849 0 0 0 1)
(0.985746 -0.168241 0 0.168241 0.985746 0 0 0 1)
(0.985643 -0.168845 0 0.168845 0.985643 0 0 0 1)
(0.985539 -0.16945 0 0.16945 0.985539 0 0 0 1)
(0.985435 -0.170055 0 0.170055 0.985435 0 0 0 1)
(0.98533 -0.17066 0 0.17066 0.98533 0 0 0 1)
(0.985225 -0.171264 0 0.171264 0.985225 0 0 0 1)
(0.98512 -0.171868 0 0.171868 0.98512 0 0 0 1)
(0.985014 -0.172473 0 0.172473 0.985014 0 0 0 1)
(0.984908 -0.173078 0 0.173078 0.984908 0 0 0 1)
(0.984802 -0.173682 0 0.173682 0.984802 0 0 0 1)
(0.984695 -0.174286 0 0.174286 0.984695 0 0 0 1)
(0.984588 -0.17489 0 0.17489 0.984588 0 0 0 1)
(0.98448 -0.175494 0 0.175494 0.98448 0 0 0 1)
(0.984373 -0.176098 0 0.176098 0.984373 0 0 0 1)
(0.984264 -0.176702 0 0.176702 0.984264 0 0 0 1)
(0.984156 -0.177306 0 0.177306 0.984156 0 0 0 1)
(0.984047 -0.17791 0 0.17791 0.984047 0 0 0 1)
(0.983937 -0.178514 0 0.178514 0.983937 0 0 0 1)
(0.983828 -0.179118 0 0.179118 0.983828 0 0 0 1)
(0.983718 -0.179721 0 0.179721 0.983718 0 0 0 1)
(0.983607 -0.180325 0 0.180325 0.983607 0 0 0 1)
(0.983496 -0.180928 0 0.180928 0.983496 0 0 0 1)
(0.983385 -0.181532 0 0.181532 0.983385 0 0 0 1)
(0.983273 -0.182135 0 0.182135 0.983273 0 0 0 1)
(0.983162 -0.182738 0 0.182738 0.983162 0 0 0 1)
(0.983049 -0.183342 0 0.183342 0.983049 0 0 0 1)
(0.982937 -0.183945 0 0.183945 0.982937 0 0 0 1)
(0.982824 -0.184548 0 0.184548 0.982824 0 0 0 1)
(0.98271 -0.185151 0 0.185151 0.98271 0 0 0 1)
(0.982596 -0.185754 0 0.185754 0.982596 0 0 0 1)
(0.982482 -0.186357 0 0.186357 0.982482 0 0 0 1)
(0.982368 -0.186959 0 0.186959 0.982368 0 0 0 1)
(0.982253 -0.187562 0 0.187562 0.982253 0 0 0 1)
(0.982138 -0.188165 0 0.188165 0.982138 0 0 0 1)
(0.982022 -0.188768 0 0.188768 0.982022 0 0 0 1)
(0.981906 -0.18937 0 0.18937 0.981906 0 0 0 1)
(0.981789 -0.189972 0 0.189972 0.981789 0 0 0 1)
(0.981673 -0.190575 0 0.190575 0.981673 0 0 0 1)
(0.981556 -0.191177 0 0.191177 0.981556 0 0 0 1)
(0.981438 -0.19178 0 0.19178 0.981438 0 0 0 1)
(0.98132 -0.192382 0 0.192382 0.98132 0 0 0 1)
(0.981202 -0.192984 0 0.192984 0.981202 0 0 0 1)
(0.981083 -0.193586 0 0.193586 0.981083 0 0 0 1)
(0.980964 -0.194187 0 0.194187 0.980964 0 0 0 1)
(0.980845 -0.19479 0 0.19479 0.980845 0 0 0 1)
(0.980725 -0.195391 0 0.195391 0.980725 0 0 0 1)
(0.980605 -0.195993 0 0.195993 0.980605 0 0 0 1)
(0.980485 -0.196595 0 0.196595 0.980485 0 0 0 1)
(0.980364 -0.197196 0 0.197196 0.980364 0 0 0 1)
(0.980243 -0.197798 0 0.197798 0.980243 0 0 0 1)
(0.980121 -0.198399 0 0.198399 0.980121 0 0 0 1)
(0.979999 -0.199001 0 0.199001 0.979999 0 0 0 1)
(0.979877 -0.199602 0 0.199602 0.979877 0 0 0 1)
(0.979754 -0.200203 0 0.200203 0.979754 0 0 0 1)
(0.979631 -0.200804 0 0.200804 0.979631 0 0 0 1)
(0.979508 -0.201405 0 0.201405 0.979508 0 0 0 1)
(0.979384 -0.202006 0 0.202006 0.979384 0 0 0 1)
(0.97926 -0.202607 0 0.202607 0.97926 0 0 0 1)
(0.979136 -0.203208 0 0.203208 0.979136 0 0 0 1)
(0.979011 -0.203809 0 0.203809 0.979011 0 0 0 1)
(0.978886 -0.204409 0 0.204409 0.978886 0 0 0 1)
(0.97876 -0.20501 0 0.20501 0.97876 0 0 0 1)
(0.978634 -0.205611 0 0.205611 0.978634 0 0 0 1)
(0.978508 -0.206211 0 0.206211 0.978508 0 0 0 1)
(0.978381 -0.206811 0 0.206811 0.978381 0 0 0 1)
(0.978254 -0.207411 0 0.207411 0.978254 0 0 0 1)
(0.978126 -0.208012 0 0.208012 0.978126 0 0 0 1)
(0.977998 -0.208612 0 0.208612 0.977998 0 0 0 1)
(0.97787 -0.209212 0 0.209212 0.97787 0 0 0 1)
(0.977742 -0.209812 0 0.209812 0.977742 0 0 0 1)
(0.977613 -0.210412 0 0.210412 0.977613 0 0 0 1)
(0.977483 -0.211012 0 0.211012 0.977483 0 0 0 1)
(0.977354 -0.211612 0 0.211612 0.977354 0 0 0 1)
(0.977224 -0.212211 0 0.212211 0.977224 0 0 0 1)
(0.977093 -0.212811 0 0.212811 0.977093 0 0 0 1)
(0.976963 -0.21341 0 0.21341 0.976963 0 0 0 1)
(0.976832 -0.214009 0 0.214009 0.976832 0 0 0 1)
(0.9767 -0.214609 0 0.214609 0.9767 0 0 0 1)
(0.976568 -0.215208 0 0.215208 0.976568 0 0 0 1)
(0.976436 -0.215807 0 0.215807 0.976436 0 0 0 1)
(0.976303 -0.216406 0 0.216406 0.976303 0 0 0 1)
(0.97617 -0.217005 0 0.217005 0.97617 0 0 0 1)
(0.976037 -0.217604 0 0.217604 0.976037 0 0 0 1)
(0.975903 -0.218203 0 0.218203 0.975903 0 0 0 1)
(0.975769 -0.218802 0 0.218802 0.975769 0 0 0 1)
(0.975635 -0.219401 0 0.219401 0.975635 0 0 0 1)
(0.9755 -0.219999 0 0.219999 0.9755 0 0 0 1)
(0.975365 -0.220598 0 0.220598 0.975365 0 0 0 1)
(0.975229 -0.221196 0 0.221196 0.975229 0 0 0 1)
(0.975093 -0.221795 0 0.221795 0.975093 0 0 0 1)
(0.974957 -0.222393 0 0.222393 0.974957 0 0 0 1)
(0.974821 -0.222991 0 0.222991 0.974821 0 0 0 1)
(0.974684 -0.223589 0 0.223589 0.974684 0 0 0 1)
(0.974546 -0.224187 0 0.224187 0.974546 0 0 0 1)
(0.974408 -0.224785 0 0.224785 0.974408 0 0 0 1)
(0.97427 -0.225383 0 0.225383 0.97427 0 0 0 1)
(0.974132 -0.225981 0 0.225981 0.974132 0 0 0 1)
(0.973993 -0.226578 0 0.226578 0.973993 0 0 0 1)
(0.973854 -0.227176 0 0.227176 0.973854 0 0 0 1)
(0.973714 -0.227774 0 0.227774 0.973714 0 0 0 1)
(0.973574 -0.228371 0 0.228371 0.973574 0 0 0 1)
(0.973434 -0.228968 0 0.228968 0.973434 0 0 0 1)
(0.973293 -0.229565 0 0.229565 0.973293 0 0 0 1)
(0.973152 -0.230162 0 0.230162 0.973152 0 0 0 1)
(0.973011 -0.230759 0 0.230759 0.973011 0 0 0 1)
(0.972869 -0.231357 0 0.231357 0.972869 0 0 0 1)
(0.972727 -0.231954 0 0.231954 0.972727 0 0 0 1)
(0.972584 -0.23255 0 0.23255 0.972584 0 0 0 1)
(0.972442 -0.233147 0 0.233147 0.972442 0 0 0 1)
(0.972298 -0.233743 0 0.233743 0.972298 0 0 0 1)
(0.972155 -0.23434 0 0.23434 0.972155 0 0 0 1)
(0.972011 -0.234937 0 0.234937 0.972011 0 0 0 1)
(0.971866 -0.235533 0 0.235533 0.971866 0 0 0 1)
(0.971722 -0.236129 0 0.236129 0.971722 0 0 0 1)
(0.971577 -0.236725 0 0.236725 0.971577 0 0 0 1)
(0.971431 -0.237322 0 0.237322 0.971431 0 0 0 1)
(0.971285 -0.237918 0 0.237918 0.971285 0 0 0 1)
(0.971139 -0.238514 0 0.238514 0.971139 0 0 0 1)
(0.970993 -0.239109 0 0.239109 0.970993 0 0 0 1)
(0.970846 -0.239705 0 0.239705 0.970846 0 0 0 1)
(0.970698 -0.240301 0 0.240301 0.970698 0 0 0 1)
(0.970551 -0.240897 0 0.240897 0.970551 0 0 0 1)
(0.970403 -0.241492 0 0.241492 0.970403 0 0 0 1)
(0.970254 -0.242087 0 0.242087 0.970254 0 0 0 1)
(0.970106 -0.242682 0 0.242682 0.970106 0 0 0 1)
(0.969957 -0.243278 0 0.243278 0.969957 0 0 0 1)
(0.969807 -0.243873 0 0.243873 0.969807 0 0 0 1)
(0.969657 -0.244468 0 0.244468 0.969657 0 0 0 1)
(0.969507 -0.245063 0 0.245063 0.969507 0 0 0 1)
(0.969357 -0.245658 0 0.245658 0.969357 0 0 0 1)
(0.969206 -0.246252 0 0.246252 0.969206 0 0 0 1)
(0.969055 -0.246847 0 0.246847 0.969055 0 0 0 1)
(0.968903 -0.247442 0 0.247442 0.968903 0 0 0 1)
(0.968751 -0.248036 0 0.248036 0.968751 0 0 0 1)
(0.968598 -0.24863 0 0.24863 0.968598 0 0 0 1)
(0.968446 -0.249225 0 0.249225 0.968446 0 0 0 1)
(0.968293 -0.249819 0 0.249819 0.968293 0 0 0 1)
(0.968139 -0.250413 0 0.250413 0.968139 0 0 0 1)
(0.967985 -0.251007 0 0.251007 0.967985 0 0 0 1)
(0.967831 -0.251601 0 0.251601 0.967831 0 0 0 1)
(0.967677 -0.252195 0 0.252195 0.967677 0 0 0 1)
(0.967522 -0.252788 0 0.252788 0.967522 0 0 0 1)
(0.967366 -0.253382 0 0.253382 0.967366 0 0 0 1)
(0.967211 -0.253976 0 0.253976 0.967211 0 0 0 1)
(0.967055 -0.254569 0 0.254569 0.967055 0 0 0 1)
(0.966898 -0.255162 0 0.255162 0.966898 0 0 0 1)
(0.966742 -0.255755 0 0.255755 0.966742 0 0 0 1)
(0.966584 -0.256349 0 0.256349 0.966584 0 0 0 1)
(0.966427 -0.256942 0 0.256942 0.966427 0 0 0 1)
(0.966269 -0.257535 0 0.257535 0.966269 0 0 0 1)
(0.966111 -0.258128 0 0.258128 0.966111 0 0 0 1)
(0.965952 -0.25872 0 0.25872 0.965952 0 0 0 1)
(0.965793 -0.259313 0 0.259313 0.965793 0 0 0 1)
(0.965634 -0.259906 0 0.259906 0.965634 0 0 0 1)
(0.965474 -0.260498 0 0.260498 0.965474 0 0 0 1)
(0.965314 -0.26109 0 0.26109 0.965314 0 0 0 1)
(0.965154 -0.261683 0 0.261683 0.965154 0 0 0 1)
(0.964993 -0.262275 0 0.262275 0.964993 0 0 0 1)
(0.964832 -0.262867 0 0.262867 0.964832 0 0 0 1)
(0.964671 -0.263459 0 0.263459 0.964671 0 0 0 1)
(0.964509 -0.264051 0 0.264051 0.964509 0 0 0 1)
(0.964347 -0.264642 0 0.264642 0.964347 0 0 0 1)
(0.964184 -0.265234 0 0.265234 0.964184 0 0 0 1)
(0.964021 -0.265825 0 0.265825 0.964021 0 0 0 1)
(0.963858 -0.266417 0 0.266417 0.963858 0 0 0 1)
(0.963694 -0.267009 0 0.267009 0.963694 0 0 0 1)
(0.96353 -0.2676 0 0.2676 0.96353 0 0 0 1)
(0.963366 -0.268191 0 0.268191 0.963366 0 0 0 1)
(0.963201 -0.268782 0 0.268782 0.963201 0 0 0 1)
(0.963036 -0.269373 0 0.269373 0.963036 0 0 0 1)
(0.96287 -0.269964 0 0.269964 0.96287 0 0 0 1)
(0.962705 -0.270555 0 0.270555 0.962705 0 0 0 1)
(0.962538 -0.271145 0 0.271145 0.962538 0 0 0 1)
(0.962372 -0.271736 0 0.271736 0.962372 0 0 0 1)
(0.962205 -0.272326 0 0.272326 0.962205 0 0 0 1)
(0.962038 -0.272917 0 0.272917 0.962038 0 0 0 1)
(0.96187 -0.273507 0 0.273507 0.96187 0 0 0 1)
(0.961702 -0.274097 0 0.274097 0.961702 0 0 0 1)
(0.961534 -0.274687 0 0.274687 0.961534 0 0 0 1)
(0.961365 -0.275277 0 0.275277 0.961365 0 0 0 1)
(0.961196 -0.275867 0 0.275867 0.961196 0 0 0 1)
(0.961026 -0.276457 0 0.276457 0.961026 0 0 0 1)
(0.960857 -0.277046 0 0.277046 0.960857 0 0 0 1)
(0.960686 -0.277636 0 0.277636 0.960686 0 0 0 1)
(0.960516 -0.278225 0 0.278225 0.960516 0 0 0 1)
(0.960345 -0.278814 0 0.278814 0.960345 0 0 0 1)
(0.960174 -0.279404 0 0.279404 0.960174 0 0 0 1)
(0.960002 -0.279993 0 0.279993 0.960002 0 0 0 1)
(0.95983 -0.280582 0 0.280582 0.95983 0 0 0 1)
(0.959658 -0.28117 0 0.28117 0.959658 0 0 0 1)
(0.959485 -0.281759 0 0.281759 0.959485 0 0 0 1)
(0.959312 -0.282348 0 0.282348 0.959312 0 0 0 1)
(0.959139 -0.282937 0 0.282937 0.959139 0 0 0 1)
(0.958965 -0.283525 0 0.283525 0.958965 0 0 0 1)
(0.958791 -0.284113 0 0.284113 0.958791 0 0 0 1)
(0.958616 -0.284702 0 0.284702 0.958616 0 0 0 1)
(0.958441 -0.28529 0 0.28529 0.958441 0 0 0 1)
(0.958266 -0.285878 0 0.285878 0.958266 0 0 0 1)
(0.95809 -0.286466 0 0.286466 0.95809 0 0 0 1)
(0.957915 -0.287054 0 0.287054 0.957915 0 0 0 1)
(0.957738 -0.287641 0 0.287641 0.957738 0 0 0 1)
(0.957561 -0.288229 0 0.288229 0.957561 0 0 0 1)
(0.957384 -0.288817 0 0.288817 0.957384 0 0 0 1)
(0.957207 -0.289404 0 0.289404 0.957207 0 0 0 1)
(0.957029 -0.289991 0 0.289991 0.957029 0 0 0 1)
(0.956851 -0.290578 0 0.290578 0.956851 0 0 0 1)
(0.956673 -0.291165 0 0.291165 0.956673 0 0 0 1)
(0.956494 -0.291752 0 0.291752 0.956494 0 0 0 1)
(0.956315 -0.292339 0 0.292339 0.956315 0 0 0 1)
(0.956135 -0.292926 0 0.292926 0.956135 0 0 0 1)
(0.955955 -0.293512 0 0.293512 0.955955 0 0 0 1)
(0.955775 -0.294099 0 0.294099 0.955775 0 0 0 1)
(0.955594 -0.294685 0 0.294685 0.955594 0 0 0 1)
(0.955413 -0.295272 0 0.295272 0.955413 0 0 0 1)
(0.955232 -0.295858 0 0.295858 0.955232 0 0 0 1)
(0.95505 -0.296444 0 0.296444 0.95505 0 0 0 1)
(0.954868 -0.29703 0 0.29703 0.954868 0 0 0 1)
(0.954686 -0.297616 0 0.297616 0.954686 0 0 0 1)
(0.954503 -0.298202 0 0.298202 0.954503 0 0 0 1)
(0.95432 -0.298787 0 0.298787 0.95432 0 0 0 1)
(0.954136 -0.299373 0 0.299373 0.954136 0 0 0 1)
(0.953952 -0.299958 0 0.299958 0.953952 0 0 0 1)
(0.953768 -0.300543 0 0.300543 0.953768 0 0 0 1)
(0.953584 -0.301129 0 0.301129 0.953584 0 0 0 1)
(0.953399 -0.301714 0 0.301714 0.953399 0 0 0 1)
(0.953213 -0.302299 0 0.302299 0.953213 0 0 0 1)
(0.953028 -0.302883 0 0.302883 0.953028 0 0 0 1)
(0.952842 -0.303468 0 0.303468 0.952842 0 0 0 1)
(0.952655 -0.304053 0 0.304053 0.952655 0 0 0 1)
(0.952468 -0.304637 0 0.304637 0.952468 0 0 0 1)
(0.952281 -0.305222 0 0.305222 0.952281 0 0 0 1)
(0.952094 -0.305806 0 0.305806 0.952094 0 0 0 1)
(0.951906 -0.30639 0 0.30639 0.951906 0 0 0 1)
(0.951718 -0.306974 0 0.306974 0.951718 0 0 0 1)
(0.951529 -0.307558 0 0.307558 0.951529 0 0 0 1)
(0.95134 -0.308142 0 0.308142 0.95134 0 0 0 1)
(0.951151 -0.308725 0 0.308725 0.951151 0 0 0 1)
(0.950962 -0.309309 0 0.309309 0.950962 0 0 0 1)
(0.950772 -0.309892 0 0.309892 0.950772 0 0 0 1)
(0.950581 -0.310475 0 0.310475 0.950581 0 0 0 1)
(0.950391 -0.311059 0 0.311059 0.950391 0 0 0 1)
(0.9502 -0.311642 0 0.311642 0.9502 0 0 0 1)
(0.950008 -0.312225 0 0.312225 0.950008 0 0 0 1)
(0.949817 -0.312808 0 0.312808 0.949817 0 0 0 1)
(0.949624 -0.31339 0 0.31339 0.949624 0 0 0 1)
(0.949432 -0.313973 0 0.313973 0.949432 0 0 0 1)
(0.949239 -0.314556 0 0.314556 0.949239 0 0 0 1)
(0.949046 -0.315138 0 0.315138 0.949046 0 0 0 1)
(0.948852 -0.31572 0 0.31572 0.948852 0 0 0 1)
(0.948658 -0.316302 0 0.316302 0.948658 0 0 0 1)
(0.948464 -0.316885 0 0.316885 0.948464 0 0 0 1)
(0.948269 -0.317466 0 0.317466 0.948269 0 0 0 1)
(0.948075 -0.318048 0 0.318048 0.948075 0 0 0 1)
(0.947879 -0.31863 0 0.31863 0.947879 0 0 0 1)
(0.947684 -0.319211 0 0.319211 0.947684 0 0 0 1)
(0.947487 -0.319793 0 0.319793 0.947487 0 0 0 1)
(0.947291 -0.320374 0 0.320374 0.947291 0 0 0 1)
(0.947094 -0.320955 0 0.320955 0.947094 0 0 0 1)
(0.946897 -0.321536 0 0.321536 0.946897 0 0 0 1)
(0.9467 -0.322117 0 0.322117 0.9467 0 0 0 1)
(0.946502 -0.322698 0 0.322698 0.946502 0 0 0 1)
(0.946304 -0.323279 0 0.323279 0.946304 0 0 0 1)
(0.946105 -0.32386 0 0.32386 0.946105 0 0 0 1)
(0.945906 -0.32444 0 0.32444 0.945906 0 0 0 1)
(0.945707 -0.32502 0 0.32502 0.945707 0 0 0 1)
(0.945508 -0.3256 0 0.3256 0.945508 0 0 0 1)
(0.945308 -0.32618 0 0.32618 0.945308 0 0 0 1)
(0.945107 -0.326761 0 0.326761 0.945107 0 0 0 1)
(0.944906 -0.32734 0 0.32734 0.944906 0 0 0 1)
(0.944705 -0.32792 0 0.32792 0.944705 0 0 0 1)
(0.944504 -0.3285 0 0.3285 0.944504 0 0 0 1)
(0.944302 -0.329079 0 0.329079 0.944302 0 0 0 1)
(0.9441 -0.329659 0 0.329659 0.9441 0 0 0 1)
(0.943898 -0.330238 0 0.330238 0.943898 0 0 0 1)
(0.943695 -0.330817 0 0.330817 0.943695 0 0 0 1)
(0.943492 -0.331396 0 0.331396 0.943492 0 0 0 1)
(0.943288 -0.331975 0 0.331975 0.943288 0 0 0 1)
(0.943084 -0.332554 0 0.332554 0.943084 0 0 0 1)
(0.94288 -0.333132 0 0.333132 0.94288 0 0 0 1)
(0.942676 -0.333711 0 0.333711 0.942676 0 0 0 1)
(0.942471 -0.334289 0 0.334289 0.942471 0 0 0 1)
(0.942265 -0.334867 0 0.334867 0.942265 0 0 0 1)
(0.94206 -0.335445 0 0.335445 0.94206 0 0 0 1)
(0.941854 -0.336023 0 0.336023 0.941854 0 0 0 1)
(0.941647 -0.336601 0 0.336601 0.941647 0 0 0 1)
(0.941441 -0.337179 0 0.337179 0.941441 0 0 0 1)
(0.941234 -0.337756 0 0.337756 0.941234 0 0 0 1)
(0.941026 -0.338334 0 0.338334 0.941026 0 0 0 1)
(0.940818 -0.338911 0 0.338911 0.940818 0 0 0 1)
(0.94061 -0.339489 0 0.339489 0.94061 0 0 0 1)
(0.940402 -0.340066 0 0.340066 0.940402 0 0 0 1)
(0.940193 -0.340642 0 0.340642 0.940193 0 0 0 1)
(0.939984 -0.341219 0 0.341219 0.939984 0 0 0 1)
(0.939774 -0.341796 0 0.341796 0.939774 0 0 0 1)
(0.939564 -0.342373 0 0.342373 0.939564 0 0 0 1)
(0.939354 -0.342949 0 0.342949 0.939354 0 0 0 1)
(0.939143 -0.343525 0 0.343525 0.939143 0 0 0 1)
(0.938932 -0.344101 0 0.344101 0.938932 0 0 0 1)
(0.938721 -0.344677 0 0.344677 0.938721 0 0 0 1)
(0.938509 -0.345254 0 0.345254 0.938509 0 0 0 1)
(0.938297 -0.345829 0 0.345829 0.938297 0 0 0 1)
(0.938085 -0.346405 0 0.346405 0.938085 0 0 0 1)
(0.937872 -0.34698 0 0.34698 0.937872 0 0 0 1)
(0.937659 -0.347556 0 0.347556 0.937659 0 0 0 1)
(0.937446 -0.348131 0 0.348131 0.937446 0 0 0 1)
(0.937232 -0.348706 0 0.348706 0.937232 0 0 0 1)
(0.937018 -0.349281 0 0.349281 0.937018 0 0 0 1)
(0.936803 -0.349856 0 0.349856 0.936803 0 0 0 1)
(0.936589 -0.350431 0 0.350431 0.936589 0 0 0 1)
(0.936373 -0.351006 0 0.351006 0.936373 0 0 0 1)
(0.936158 -0.35158 0 0.35158 0.936158 0 0 0 1)
(0.935942 -0.352155 0 0.352155 0.935942 0 0 0 1)
(0.935726 -0.352729 0 0.352729 0.935726 0 0 0 1)
(0.935509 -0.353303 0 0.353303 0.935509 0 0 0 1)
(0.935292 -0.353877 0 0.353877 0.935292 0 0 0 1)
(0.935075 -0.35445 0 0.35445 0.935075 0 0 0 1)
(0.934857 -0.355024 0 0.355024 0.934857 0 0 0 1)