/*--------------------------------*- C++ -*----------------------------------*\
| =========                 |                                                 |
| \\      /  F ield         | foam-extend: Open Source CFD                    |
|  \\    /   O peration     | Version:     4.1                                |
|   \\  /    A nd           | Web:         http://www.foam-extend.org         |
|    \\/     M anipulation  |                                                 |
\*---------------------------------------------------------------------------*/
FoamFile
{
    version     2.0;
    format      ascii;
    class       surfaceVectorField;
    location    "0";
    object      refTangent;
}
// * * * * * * * * * * * * * * * * * * * * * * * * * * * * * * * * * * * * * //

dimensions      [0 0 0 0 0 0 0];

internalField   nonuniform List<vector> 
1279
(
(1 0.000613592 0)
(0.999999 0.00122718 0)
(0.999998 0.00184078 0)
(0.999997 0.00245437 0)
(0.999995 0.00306796 0)
(0.999993 0.00368154 0)
(0.999991 0.00429514 0)
(0.999988 0.00490872 0)
(0.999985 0.0055223 0)
(0.999981 0.00613588 0)
(0.999977 0.00674947 0)
(0.999973 0.00736304 0)
(0.999968 0.00797662 0)
(0.999963 0.00859019 0)
(0.999958 0.00920375 0)
(0.999952 0.00981732 0)
(0.999946 0.0104309 0)
(0.999939 0.0110445 0)
(0.999932 0.011658 0)
(0.999925 0.0122715 0)
(0.999917 0.012885 0)
(0.999909 0.0134986 0)
(0.9999 0.0141121 0)
(0.999892 0.0147257 0)
(0.999882 0.0153392 0)
(0.999873 0.0159527 0)
(0.999863 0.0165662 0)
(0.999852 0.0171798 0)
(0.999842 0.0177933 0)
(0.999831 0.0184068 0)
(0.999819 0.0190203 0)
(0.999807 0.0196337 0)
(0.999795 0.0202471 0)
(0.999782 0.0208606 0)
(0.999769 0.0214741 0)
(0.999756 0.0220875 0)
(0.999742 0.022701 0)
(0.999728 0.0233144 0)
(0.999714 0.0239278 0)
(0.999699 0.0245412 0)
(0.999684 0.0251547 0)
(0.999668 0.0257681 0)
(0.999652 0.0263814 0)
(0.999636 0.0269948 0)
(0.999619 0.0276082 0)
(0.999602 0.0282215 0)
(0.999584 0.0288348 0)
(0.999566 0.0294481 0)
(0.999548 0.0300615 0)
(0.999529 0.0306748 0)
(0.99951 0.0312881 0)
(0.999491 0.0319014 0)
(0.999471 0.0325147 0)
(0.999451 0.0331279 0)
(0.999431 0.0337412 0)
(0.99941 0.0343544 0)
(0.999388 0.0349677 0)
(0.999367 0.0355809 0)
(0.999345 0.036194 0)
(0.999322 0.0368072 0)
(0.9993 0.0374204 0)
(0.999276 0.0380335 0)
(0.999253 0.0386467 0)
(0.999229 0.0392598 0)
(0.999205 0.0398729 0)
(0.99918 0.040486 0)
(0.999155 0.0410991 0)
(0.99913 0.0417122 0)
(0.999104 0.0423253 0)
(0.999078 0.0429383 0)
(0.999051 0.0435513 0)
(0.999024 0.0441642 0)
(0.998997 0.0447772 0)
(0.998969 0.0453902 0)
(0.998941 0.0460032 0)
(0.998913 0.0466161 0)
(0.998884 0.047229 0)
(0.998855 0.0478419 0)
(0.998825 0.0484548 0)
(0.998795 0.0490677 0)
(0.998765 0.0496806 0)
(0.998734 0.0502934 0)
(0.998703 0.0509062 0)
(0.998672 0.051519 0)
(0.99864 0.0521317 0)
(0.998608 0.0527444 0)
(0.998575 0.0533572 0)
(0.998543 0.0539699 0)
(0.998509 0.0545826 0)
(0.998476 0.0551952 0)
(0.998442 0.0558079 0)
(0.998407 0.0564205 0)
(0.998372 0.0570331 0)
(0.998337 0.0576457 0)
(0.998302 0.0582583 0)
(0.998266 0.0588709 0)
(0.998229 0.0594834 0)
(0.998193 0.0600958 0)
(0.998156 0.0607083 0)
(0.998118 0.0613207 0)
(0.99808 0.0619332 0)
(0.998042 0.0625456 0)
(0.998004 0.0631579 0)
(0.997965 0.0637703 0)
(0.997925 0.0643827 0)
(0.997886 0.064995 0)
(0.997846 0.0656073 0)
(0.997805 0.0662195 0)
(0.997764 0.0668318 0)
(0.997723 0.067444 0)
(0.997681 0.0680561 0)
(0.99764 0.0686682 0)
(0.997597 0.0692804 0)
(0.997555 0.0698925 0)
(0.997511 0.0705046 0)
(0.997468 0.0711166 0)
(0.997424 0.0717287 0)
(0.99738 0.0723407 0)
(0.997335 0.0729526 0)
(0.99729 0.0735646 0)
(0.997245 0.0741765 0)
(0.997199 0.0747884 0)
(0.997153 0.0754003 0)
(0.997107 0.076012 0)
(0.99706 0.0766238 0)
(0.997013 0.0772356 0)
(0.996965 0.0778474 0)
(0.996917 0.0784591 0)
(0.996869 0.0790708 0)
(0.99682 0.0796825 0)
(0.996771 0.0802941 0)
(0.996722 0.0809057 0)
(0.996672 0.0815173 0)
(0.996622 0.0821288 0)
(0.996571 0.0827403 0)
(0.99652 0.0833518 0)
(0.996469 0.0839631 0)
(0.996417 0.0845746 0)
(0.996365 0.085186 0)
(0.996313 0.0857973 0)
(0.99626 0.0864086 0)
(0.996207 0.0870199 0)
(0.996153 0.0876312 0)
(0.996099 0.0882424 0)
(0.996045 0.0888536 0)
(0.99599 0.0894647 0)
(0.995935 0.0900759 0)
(0.995879 0.090687 0)
(0.995824 0.091298 0)
(0.995767 0.0919089 0)
(0.995711 0.0925199 0)
(0.995654 0.0931309 0)
(0.995597 0.0937418 0)
(0.995539 0.0943527 0)
(0.995481 0.0949635 0)
(0.995422 0.0955743 0)
(0.995363 0.0961851 0)
(0.995304 0.0967958 0)
(0.995245 0.0974065 0)
(0.995185 0.0980172 0)
(0.995124 0.0986278 0)
(0.995064 0.0992384 0)
(0.995003 0.0998494 0)
(0.994941 0.100459 0)
(0.994879 0.10107 0)
(0.994817 0.10168 0)
(0.994755 0.102291 0)
(0.994692 0.102902 0)
(0.994628 0.103511 0)
(0.994565 0.104122 0)
(0.994501 0.104732 0)
(0.994436 0.105342 0)
(0.994371 0.105952 0)
(0.994306 0.106562 0)
(0.99424 0.107173 0)
(0.994175 0.107782 0)
(0.994108 0.108393 0)
(0.994042 0.109002 0)
(0.993974 0.109612 0)
(0.993907 0.110223 0)
(0.993839 0.110832 0)
(0.993771 0.111442 0)
(0.993702 0.112051 0)
(0.993633 0.112661 0)
(0.993564 0.113271 0)
(0.993494 0.11388 0)
(0.993424 0.11449 0)
(0.993354 0.115099 0)
(0.993283 0.115709 0)
(0.993212 0.116319 0)
(0.99314 0.116928 0)
(0.993068 0.117538 0)
(0.992996 0.118146 0)
(0.992923 0.118756 0)
(0.99285 0.119366 0)
(0.992777 0.119974 0)
(0.992703 0.120584 0)
(0.992629 0.121192 0)
(0.992554 0.121802 0)
(0.99248 0.12241 0)
(0.992404 0.12302 0)
(0.992329 0.123629 0)
(0.992253 0.124237 0)
(0.992176 0.124846 0)
(0.992099 0.125455 0)
(0.992022 0.126064 0)
(0.991945 0.126673 0)
(0.991867 0.127281 0)
(0.991788 0.12789 0)
(0.99171 0.128498 0)
(0.991631 0.129107 0)
(0.991551 0.129715 0)
(0.991472 0.130323 0)
(0.991391 0.130932 0)
(0.991311 0.13154 0)
(0.99123 0.132148 0)
(0.991149 0.132757 0)
(0.991067 0.133364 0)
(0.990985 0.133973 0)
(0.990903 0.13458 0)
(0.99082 0.135189 0)
(0.990737 0.135796 0)
(0.990653 0.136404 0)
(0.990569 0.137013 0)
(0.990485 0.13762 0)
(0.9904 0.138228 0)
(0.990316 0.138835 0)
(0.99023 0.139443 0)
(0.990144 0.140051 0)
(0.990058 0.140658 0)
(0.989972 0.141266 0)
(0.989885 0.141873 0)
(0.989798 0.14248 0)
(0.98971 0.143088 0)
(0.989622 0.143695 0)
(0.989534 0.144302 0)
(0.989445 0.144909 0)
(0.989356 0.145517 0)
(0.989266 0.146124 0)
(0.989177 0.14673 0)
(0.989086 0.147338 0)
(0.988996 0.147944 0)
(0.988905 0.148551 0)
(0.988813 0.149158 0)
(0.988722 0.149764 0)
(0.98863 0.150371 0)
(0.988537 0.150977 0)
(0.988444 0.151584 0)
(0.988351 0.15219 0)
(0.988258 0.152797 0)
(0.988164 0.153404 0)
(0.988069 0.15401 0)
(0.987975 0.154616 0)
(0.98788 0.155222 0)
(0.987784 0.155828 0)
(0.987688 0.156435 0)
(0.987592 0.15704 0)
(0.987496 0.157647 0)
(0.987399 0.158252 0)
(0.987301 0.158858 0)
(0.987204 0.159464 0)
(0.987106 0.160069 0)
(0.987007 0.160676 0)
(0.986909 0.161281 0)
(0.986809 0.161886 0)
(0.98671 0.162492 0)
(0.98661 0.163097 0)
(0.98651 0.163703 0)
(0.986409 0.164308 0)
(0.986308 0.164913 0)
(0.986207 0.165519 0)
(0.986105 0.166123 0)
(0.986003 0.166729 0)
(0.9859 0.167333 0)
(0.985797 0.167938 0)
(0.985694 0.168543 0)
(0.985591 0.169148 0)
(0.985487 0.169753 0)
(0.985382 0.170357 0)
(0.985278 0.170962 0)
(0.985173 0.171566 0)
(0.985067 0.172171 0)
(0.984961 0.172776 0)
(0.984855 0.173379 0)
(0.984748 0.173984 0)
(0.984642 0.174588 0)
(0.984534 0.175192 0)
(0.984426 0.175797 0)
(0.984319 0.1764 0)
(0.98421 0.177004 0)
(0.984101 0.177608 0)
(0.983992 0.178212 0)
(0.983883 0.178816 0)
(0.983773 0.179419 0)
(0.983662 0.180023 0)
(0.983552 0.180626 0)
(0.983441 0.18123 0)
(0.983329 0.181834 0)
(0.983218 0.182437 0)
(0.983105 0.18304 0)
(0.982993 0.183643 0)
(0.98288 0.184246 0)
(0.982767 0.184849 0)
(0.982653 0.185452 0)
(0.982539 0.186056 0)
(0.982425 0.186658 0)
(0.98231 0.187261 0)
(0.982195 0.187863 0)
(0.98208 0.188466 0)
(0.981964 0.189069 0)
(0.981848 0.189671 0)
(0.981731 0.190274 0)
(0.981614 0.190876 0)
(0.981497 0.191478 0)
(0.981379 0.192081 0)
(0.981261 0.192682 0)
(0.981143 0.193285 0)
(0.981024 0.193886 0)
(0.980905 0.194489 0)
(0.980785 0.195091 0)
(0.980665 0.195692 0)
(0.980545 0.196294 0)
(0.980425 0.196895 0)
(0.980303 0.197497 0)
(0.980182 0.198099 0)
(0.98006 0.1987 0)
(0.979938 0.199301 0)
(0.979816 0.199902 0)
(0.979693 0.200504 0)
(0.97957 0.201104 0)
(0.979446 0.201706 0)
(0.979322 0.202307 0)
(0.979198 0.202907 0)
(0.979073 0.203508 0)
(0.978948 0.204109 0)
(0.978823 0.20471 0)
(0.978697 0.205311 0)
(0.978571 0.20591 0)
(0.978444 0.206511 0)
(0.978317 0.207111 0)
(0.97819 0.207712 0)
(0.978062 0.208312 0)
(0.977934 0.208912 0)
(0.977806 0.209512 0)
(0.977677 0.210112 0)
(0.977548 0.210712 0)
(0.977419 0.211312 0)
(0.977289 0.211911 0)
(0.977159 0.212511 0)
(0.977028 0.21311 0)
(0.976897 0.21371 0)
(0.976766 0.214309 0)
(0.976634 0.214908 0)
(0.976502 0.215508 0)
(0.97637 0.216107 0)
(0.976237 0.216706 0)
(0.976104 0.217304 0)
(0.97597 0.217904 0)
(0.975836 0.218503 0)
(0.975702 0.219101 0)
(0.975567 0.2197 0)
(0.975433 0.220298 0)
(0.975297 0.220897 0)
(0.975161 0.221496 0)
(0.975025 0.222093 0)
(0.974889 0.222692 0)
(0.974752 0.22329 0)
(0.974615 0.223888 0)
(0.974477 0.224486 0)
(0.974339 0.225084 0)
(0.974201 0.225682 0)
(0.974062 0.226279 0)
(0.973923 0.226877 0)
(0.973784 0.227475 0)
(0.973644 0.228072 0)
(0.973504 0.22867 0)
(0.973364 0.229267 0)
(0.973223 0.229864 0)
(0.973082 0.230461 0)
(0.97294 0.231058 0)
(0.972798 0.231655 0)
(0.972656 0.232252 0)
(0.972513 0.232849 0)
(0.97237 0.233445 0)
(0.972226 0.234042 0)
(0.972083 0.234639 0)
(0.971939 0.235235 0)
(0.971794 0.235831 0)
(0.971649 0.236427 0)
(0.971504 0.237024 0)
(0.971358 0.23762 0)
(0.971212 0.238216 0)
(0.971066 0.238812 0)
(0.970919 0.239407 0)
(0.970772 0.240003 0)
(0.970625 0.240599 0)
(0.970477 0.241194 0)
(0.970329 0.24179 0)
(0.97018 0.242385 0)
(0.970031 0.24298 0)
(0.969882 0.243576 0)
(0.969732 0.24417 0)
(0.969582 0.244766 0)
(0.969432 0.24536 0)
(0.969281 0.245955 0)
(0.96913 0.246549 0)
(0.968979 0.247144 0)
(0.968827 0.247739 0)
(0.968675 0.248333 0)
(0.968522 0.248928 0)
(0.968369 0.249521 0)
(0.968216 0.250116 0)
(0.968062 0.25071 0)
(0.967908 0.251304 0)
(0.967754 0.251898 0)
(0.967599 0.252491 0)
(0.967444 0.253085 0)
(0.967288 0.253679 0)
(0.967133 0.254272 0)
(0.966976 0.254866 0)
(0.96682 0.255459 0)
(0.966663 0.256052 0)
(0.966506 0.256646 0)
(0.966348 0.257238 0)
(0.96619 0.257831 0)
(0.966032 0.258424 0)
(0.965873 0.259017 0)
(0.965714 0.25961 0)
(0.965554 0.260202 0)
(0.965394 0.260794 0)
(0.965234 0.261386 0)
(0.965074 0.261979 0)
(0.964913 0.26257 0)
(0.964751 0.263163 0)
(0.96459 0.263755 0)
(0.964428 0.264346 0)
(0.964265 0.264938 0)
(0.964103 0.265529 0)
(0.96394 0.266121 0)
(0.963776 0.266713 0)
(0.963612 0.267304 0)
(0.963448 0.267896 0)
(0.963284 0.268486 0)
(0.963119 0.269077 0)
(0.962953 0.269669 0)
(0.962788 0.270259 0)
(0.962622 0.27085 0)
(0.962455 0.27144 0)
(0.962288 0.272031 0)
(0.962121 0.272622 0)
(0.961954 0.273212 0)
(0.961786 0.273802 0)
(0.961618 0.274392 0)
(0.961449 0.274982 0)
(0.96128 0.275572 0)
(0.961111 0.276162 0)
(0.960941 0.276752 0)
(0.960772 0.277341 0)
(0.960601 0.277931 0)
(0.960431 0.278519 0)
(0.960259 0.279109 0)
(0.960088 0.279698 0)
(0.959916 0.280287 0)
(0.959744 0.280876 0)
(0.959572 0.281465 0)
(0.959399 0.282054 0)
(0.959225 0.282643 0)
(0.959052 0.283231 0)
(0.958878 0.283819 0)
(0.958704 0.284407 0)
(0.958529 0.284996 0)
(0.958354 0.285584 0)
(0.958178 0.286172 0)
(0.958002 0.28676 0)
(0.957826 0.287347 0)
(0.95765 0.287935 0)
(0.957473 0.288523 0)
(0.957296 0.28911 0)
(0.957118 0.289698 0)
(0.95694 0.290284 0)
(0.956762 0.290872 0)
(0.956584 0.291458 0)
(0.956404 0.292046 0)
(0.956225 0.292633 0)
(0.956045 0.293219 0)
(0.955865 0.293806 0)
(0.955685 0.294392 0)
(0.955504 0.294979 0)
(0.955323 0.295565 0)
(0.955141 0.296151 0)
(0.954959 0.296737 0)
(0.954777 0.297322 0)
(0.954594 0.297909 0)
(0.954411 0.298495 0)
(0.954228 0.29908 0)
(0.954044 0.299666 0)
(0.95386 0.30025 0)
(0.953676 0.300836 0)
(0.953491 0.301421 0)
(0.953306 0.302006 0)
(0.95312 0.302591 0)
(0.952935 0.303175 0)
(0.952748 0.30376 0)
(0.952562 0.304345 0)
(0.952375 0.304929 0)
(0.952188 0.305514 0)
(0.952 0.306098 0)
(0.951812 0.306682 0)
(0.951624 0.307265 0)
(0.951435 0.30785 0)
(0.951246 0.308434 0)
(0.951057 0.309017 0)
(0.950867 0.309601 0)
(0.950677 0.310184 0)
(0.950486 0.310767 0)
(0.950295 0.311351 0)
(0.950104 0.311933 0)
(0.949912 0.312516 0)
(0.949721 0.313099 0)
(0.949528 0.313682 0)
(0.949335 0.314265 0)
(0.949143 0.314847 0)
(0.948949 0.315429 0)
(0.948756 0.316011 0)
(0.948561 0.316593 0)
(0.948367 0.317176 0)
(0.948172 0.317757 0)
(0.947977 0.318339 0)
(0.947782 0.31892 0)
(0.947586 0.319502 0)
(0.947389 0.320084 0)
(0.947193 0.320665 0)
(0.946996 0.321246 0)
(0.946799 0.321827 0)
(0.946601 0.322408 0)
(0.946403 0.322988 0)
(0.946205 0.323569 0)
(0.946006 0.32415 0)
(0.945807 0.32473 0)
(0.945607 0.32531 0)
(0.945408 0.32589 0)
(0.945207 0.326471 0)
(0.945007 0.327051 0)
(0.944806 0.32763 0)
(0.944605 0.32821 0)
(0.944403 0.328789 0)
(0.944201 0.329369 0)
(0.943999 0.329949 0)
(0.943796 0.330527 0)
(0.943593 0.331107 0)
(0.94339 0.331685 0)
(0.943186 0.332264 0)
(0.942982 0.332843 0)
(0.942778 0.333421 0)
(0.942573 0.334 0)
(0.942368 0.334578 0)
(0.942163 0.335156 0)
(0.941957 0.335735 0)
(0.941751 0.336312 0)
(0.941544 0.33689 0)
(0.941337 0.337467 0)
(0.94113 0.338045 0)
(0.940922 0.338622 0)
(0.940714 0.3392 0)
(0.940506 0.339777 0)
(0.940297 0.340354 0)
(0.940088 0.340931 0)
(0.939879 0.341507 0)
(0.939669 0.342084 0)
(0.939459 0.342661 0)
(0.939249 0.343237 0)
(0.939038 0.343814 0)
(0.938827 0.344389 0)
(0.938615 0.344966 0)
(0.938403 0.345542 0)
(0.938191 0.346117 0)
(0.937979 0.346693 0)
(0.937766 0.347268 0)
(0.937553 0.347844 0)
(0.937339 0.348419 0)
(0.937125 0.348994 0)
(0.936911 0.349569 0)
(0.936696 0.350143 0)
(0.936481 0.350718 0)
(0.936265 0.351293 0)
(0.93605 0.351867 0)
(0.935834 0.352442 0)
(0.935618 0.353015 0)
(0.935401 0.35359 0)
(0.935184 0.354163 0)
(0.934966 0.354737 0)
(0.934748 0.355311 0)
(0.93453 0.355884 0)
(0.934311 0.356458 0)
(0.934093 0.357031 0)
(0.933873 0.357604 0)
(0.933654 0.358177 0)
(0.933434 0.35875 0)
(0.933213 0.359323 0)
(0.932993 0.359895 0)
(0.932772 0.360468 0)
(0.93255 0.36104 0)
(0.932329 0.361612 0)
(0.932107 0.362184 0)
(0.931884 0.362755 0)
(0.931661 0.363328 0)
(0.931438 0.3639 0)
(0.931215 0.36447 0)
(0.930991 0.365042 0)
(0.930767 0.365613 0)
(0.930542 0.366184 0)
(0.930318 0.366755 0)
(0.930092 0.367326 0)
(0.929867 0.367897 0)
(0.929641 0.368467 0)
(0.929415 0.369037 0)
(0.929188 0.369607 0)
(0.928961 0.370177 0)
(0.928734 0.370748 0)
(0.928506 0.371317 0)
(0.928278 0.371887 0)
(0.92805 0.372456 0)
(0.927821 0.373026 0)
(0.927592 0.373595 0)
(0.927363 0.374164 0)
(0.927133 0.374733 0)
(0.926903 0.375302 0)
(0.926672 0.375871 0)
(0.926441 0.37644 0)
(0.92621 0.377007 0)
(0.925979 0.377576 0)
(0.925747 0.378144 0)
(0.925515 0.378712 0)
(0.925282 0.37928 0)
(0.925049 0.379847 0)
(0.924816 0.380415 0)
(0.924582 0.380982 0)
(0.924348 0.38155 0)
(0.924114 0.382116 0)
(0.92388 0.382683 0)
(0.923644 0.383251 0)
(0.923409 0.383817 0)
(0.923173 0.384384 0)
(0.922938 0.384949 0)
(0.922701 0.385516 0)
(0.922464 0.386083 0)
(0.922227 0.386648 0)
(0.92199 0.387214 0)
(0.921752 0.387779 0)
(0.921514 0.388345 0)
(0.921275 0.388911 0)
(0.921037 0.389476 0)
(0.920798 0.390041 0)
(0.920558 0.390605 0)
(0.920318 0.39117 0)
(0.920078 0.391735 0)
(0.919838 0.392299 0)
(0.919597 0.392864 0)
(0.919356 0.393428 0)
(0.919114 0.393992 0)
(0.918872 0.394556 0)
(0.91863 0.39512 0)
(0.918387 0.395684 0)
(0.918144 0.396247 0)
(0.917901 0.39681 0)
(0.917657 0.397373 0)
(0.917413 0.397936 0)
(0.917169 0.398499 0)
(0.916924 0.399061 0)
(0.916679 0.399624 0)
(0.916434 0.400186 0)
(0.916188 0.400749 0)
(0.915942 0.401311 0)
(0.915696 0.401873 0)
(0.915449 0.402435 0)
(0.915202 0.402996 0)
(0.914954 0.403558 0)
(0.914706 0.40412 0)
(0.914458 0.40468 0)
(0.91421 0.405242 0)
(0.913961 0.405802 0)
(0.913712 0.406363 0)
(0.913462 0.406924 0)
(0.913212 0.407484 0)
(0.912962 0.408044 0)
(0.912712 0.408604 0)
(0.912461 0.409164 0)
(0.912209 0.409725 0)
(0.911958 0.410284 0)
(0.911706 0.410844 0)
(0.911454 0.411402 0)
(0.911201 0.411962 0)
(0.910948 0.41252 0)
(0.910695 0.41308 0)
(0.910441 0.413639 0)
(0.910187 0.414197 0)
(0.909933 0.414756 0)
(0.909678 0.415313 0)
(0.909423 0.415872 0)
(0.909168 0.41643 0)
(0.908912 0.416987 0)
(0.908656 0.417545 0)
(0.9084 0.418102 0)
(0.908143 0.41866 0)
(0.907886 0.419217 0)
(0.907629 0.419774 0)
(0.907371 0.420331 0)
(0.907113 0.420887 0)
(0.906854 0.421444 0)
(0.906595 0.422001 0)
(0.906337 0.422556 0)
(0.906077 0.423113 0)
(0.905817 0.423668 0)
(0.905557 0.424224 0)
(0.905297 0.42478 0)
(0.905036 0.425335 0)
(0.904775 0.425891 0)
(0.904513 0.426445 0)
(0.904251 0.427001 0)
(0.903989 0.427555 0)
(0.903727 0.42811 0)
(0.903464 0.428665 0)
(0.903201 0.429218 0)
(0.902937 0.429773 0)
(0.902673 0.430326 0)
(0.902409 0.43088 0)
(0.902144 0.431434 0)
(0.90188 0.431987 0)
(0.901614 0.432541 0)
(0.901349 0.433094 0)
(0.901083 0.433647 0)
(0.900816 0.4342 0)
(0.90055 0.434752 0)
(0.900283 0.435305 0)
(0.900016 0.435857 0)
(0.899748 0.436409 0)
(0.89948 0.436962 0)
(0.899212 0.437513 0)
(0.898943 0.438065 0)
(0.898675 0.438616 0)
(0.898405 0.439168 0)
(0.898136 0.439718 0)
(0.897866 0.44027 0)
(0.897595 0.440821 0)
(0.897325 0.441371 0)
(0.897053 0.441922 0)
(0.896782 0.442472 0)
(0.896511 0.443022 0)
(0.896238 0.443573 0)
(0.895966 0.444122 0)
(0.895693 0.444672 0)
(0.895421 0.445221 0)
(0.895147 0.445771 0)
(0.894873 0.44632 0)
(0.8946 0.446869 0)
(0.894325 0.447418 0)
(0.894051 0.447966 0)
(0.893775 0.448515 0)
(0.8935 0.449064 0)
(0.893224 0.449611 0)
(0.892948 0.45016 0)
(0.892672 0.450707 0)
(0.892395 0.451255 0)
(0.892118 0.451803 0)
(0.891841 0.45235 0)
(0.891563 0.452897 0)
(0.891285 0.453444 0)
(0.891006 0.453991 0)
(0.890728 0.454537 0)
(0.890449 0.455084 0)
(0.890169 0.45563 0)
(0.88989 0.456176 0)
(0.889609 0.456722 0)
(0.889329 0.457267 0)
(0.889048 0.457813 0)
(0.888767 0.458359 0)
(0.888486 0.458904 0)
(0.888204 0.459449 0)
(0.887922 0.459994 0)
(0.88764 0.460539 0)
(0.887357 0.461084 0)
(0.887074 0.461628 0)
(0.88679 0.462172 0)
(0.886507 0.462716 0)
(0.886222 0.46326 0)
(0.885938 0.463804 0)
(0.885653 0.464347 0)
(0.885368 0.464891 0)
(0.885083 0.465433 0)
(0.884797 0.465977 0)
(0.884511 0.46652 0)
(0.884225 0.467062 0)
(0.883938 0.467605 0)
(0.883651 0.468147 0)
(0.883363 0.468689 0)
(0.883076 0.46923 0)
(0.882787 0.469773 0)
(0.882499 0.470314 0)
(0.88221 0.470855 0)
(0.881921 0.471397 0)
(0.881632 0.471937 0)
(0.881342 0.472479 0)
(0.881052 0.47302 0)
(0.880762 0.47356 0)
(0.880471 0.4741 0)
(0.88018 0.47464 0)
(0.879888 0.47518 0)
(0.879596 0.475721 0)
(0.879305 0.47626 0)
(0.879012 0.4768 0)
(0.87872 0.477338 0)
(0.878426 0.477878 0)
(0.878133 0.478417 0)
(0.877839 0.478955 0)
(0.877545 0.479494 0)
(0.877251 0.480032 0)
(0.876956 0.48057 0)
(0.876661 0.481109 0)
(0.876366 0.481646 0)
(0.87607 0.482184 0)
(0.875774 0.482721 0)
(0.875478 0.483259 0)
(0.875181 0.483795 0)
(0.874884 0.484333 0)
(0.874586 0.48487 0)
(0.874289 0.485406 0)
(0.873991 0.485942 0)
(0.873693 0.486478 0)
(0.873394 0.487014 0)
(0.873095 0.487551 0)
(0.872796 0.488086 0)
(0.872496 0.488622 0)
(0.872196 0.489156 0)
(0.871896 0.489692 0)
(0.871595 0.490227 0)
(0.871294 0.490761 0)
(0.870993 0.491296 0)
(0.870691 0.49183 0)
(0.870389 0.492364 0)
(0.870087 0.492899 0)
(0.869784 0.493432 0)
(0.869481 0.493966 0)
(0.869178 0.494499 0)
(0.868875 0.495032 0)
(0.86857 0.495566 0)
(0.868266 0.496098 0)
(0.867962 0.496631 0)
(0.867657 0.497163 0)
(0.867352 0.497696 0)
(0.867046 0.498227 0)
(0.86674 0.49876 0)
(0.866434 0.499292 0)
(0.866128 0.499823 0)
(0.865821 0.500354 0)
(0.865514 0.500885 0)
(0.865206 0.501416 0)
(0.864898 0.501948 0)
(0.86459 0.502478 0)
(0.864282 0.503008 0)
(0.863973 0.503538 0)
(0.863664 0.504069 0)
(0.863354 0.504599 0)
(0.863045 0.505128 0)
(0.862734 0.505658 0)
(0.862424 0.506186 0)
(0.862113 0.506716 0)
(0.861802 0.507245 0)
(0.861491 0.507773 0)
(0.861179 0.508302 0)
(0.860867 0.50883 0)
(0.860554 0.509358 0)
(0.860242 0.509886 0)
(0.859929 0.510414 0)
(0.859615 0.510942 0)
(0.859302 0.511469 0)
(0.858988 0.511996 0)
(0.858674 0.512523 0)
(0.858359 0.51305 0)
(0.858044 0.513577 0)
(0.857729 0.514103 0)
(0.857413 0.514629 0)
(0.857097 0.515155 0)
(0.856781 0.515681 0)
(0.856464 0.516207 0)
(0.856147 0.516732 0)
(0.85583 0.517257 0)
(0.855513 0.517782 0)
(0.855195 0.518307 0)
(0.854876 0.518832 0)
(0.854558 0.519356 0)
(0.854239 0.519881 0)
(0.85392 0.520404 0)
(0.8536 0.520928 0)
(0.85328 0.521452 0)
(0.852961 0.521975 0)
(0.85264 0.522499 0)
(0.85232 0.523021 0)
(0.851998 0.523545 0)
(0.851677 0.524067 0)
(0.851355 0.52459 0)
(0.851033 0.525112 0)
(0.850711 0.525634 0)
(0.850388 0.526156 0)
(0.850065 0.526677 0)
(0.849742 0.527199 0)
(0.849418 0.527721 0)
(0.849094 0.528241 0)
(0.84877 0.528763 0)
(0.848445 0.529283 0)
(0.84812 0.529804 0)
(0.847795 0.530324 0)
(0.84747 0.530844 0)
(0.847143 0.531364 0)
(0.846818 0.531883 0)
(0.846491 0.532403 0)
(0.846164 0.532923 0)
(0.845837 0.533441 0)
(0.845509 0.533961 0)
(0.845182 0.534479 0)
(0.844853 0.534998 0)
(0.844525 0.535516 0)
(0.844196 0.536034 0)
(0.843867 0.536552 0)
(0.843538 0.537069 0)
(0.843208 0.537587 0)
(0.842878 0.538104 0)
(0.842548 0.538621 0)
(0.842217 0.539139 0)
(0.841886 0.539655 0)
(0.841555 0.540172 0)
(0.841224 0.540687 0)
(0.840891 0.541204 0)
(0.840559 0.54172 0)
(0.840227 0.542235 0)
(0.839894 0.542751 0)
(0.839561 0.543266 0)
(0.839227 0.543781 0)
(0.838893 0.544296 0)
(0.838559 0.544811 0)
(0.838225 0.545325 0)
(0.83789 0.545839 0)
(0.837555 0.546353 0)
(0.837219 0.546868 0)
(0.836884 0.547381 0)
(0.836548 0.547894 0)
(0.836212 0.548407 0)
(0.835875 0.54892 0)
(0.835537 0.549434 0)
(0.8352 0.549946 0)
(0.834863 0.550458 0)
(0.834525 0.55097 0)
(0.834187 0.551482 0)
(0.833848 0.551994 0)
(0.833509 0.552505 0)
(0.83317 0.553017 0)
(0.832831 0.553528 0)
(0.832491 0.554039 0)
(0.832151 0.554549 0)
(0.83181 0.55506 0)
(0.831469 0.555571 0)
(0.831129 0.55608 0)
(0.830787 0.55659 0)
(0.830446 0.5571 0)
(0.830103 0.557609 0)
(0.829761 0.558119 0)
(0.829419 0.558628 0)
(0.829075 0.559137 0)
(0.828733 0.559645 0)
(0.828389 0.560154 0)
(0.828045 0.560662 0)
(0.827701 0.56117 0)
(0.827356 0.561678 0)
(0.827012 0.562185 0)
(0.826666 0.562692 0)
(0.826321 0.5632 0)
(0.825975 0.563706 0)
(0.825629 0.564213 0)
(0.825283 0.564719 0)
(0.824936 0.565226 0)
(0.824589 0.565732 0)
(0.824242 0.566238 0)
(0.823894 0.566744 0)
(0.823547 0.567249 0)
(0.823198 0.567754 0)
(0.82285 0.568259 0)
(0.822501 0.568764 0)
(0.822152 0.569269 0)
(0.821802 0.569773 0)
(0.821452 0.570277 0)
(0.821103 0.570781 0)
(0.820752 0.571285 0)
(0.820401 0.571788 0)
(0.82005 0.572291 0)
(0.819699 0.572795 0)
(0.819348 0.573297 0)
(0.818995 0.5738 0)
(0.818643 0.574303 0)
(0.818291 0.574804 0)
(0.817938 0.575307 0)
(0.817585 0.575808 0)
(0.817231 0.57631 0)
(0.816878 0.576811 0)
(0.816523 0.577312 0)
(0.816169 0.577813 0)
(0.815814 0.578314 0)
(0.815459 0.578814 0)
(0.815104 0.579314 0)
(0.814748 0.579815 0)
(0.814392 0.580315 0)
(0.814036 0.580814 0)
(0.81368 0.581314 0)
(0.813323 0.581812 0)
(0.812966 0.582312 0)
(0.812608 0.582811 0)
(0.812251 0.583309 0)
(0.811892 0.583807 0)
(0.811534 0.584305 0)
(0.811175 0.584803 0)
(0.810816 0.585301 0)
(0.810457 0.585798 0)
(0.810097 0.586295 0)
(0.809738 0.586792 0)
(0.809377 0.587289 0)
(0.809017 0.587786 0)
(0.808656 0.588282 0)
(0.808295 0.588778 0)
(0.807934 0.589273 0)
(0.807572 0.589769 0)
(0.80721 0.590264 0)
(0.806848 0.59076 0)
(0.806485 0.591255 0)
(0.806122 0.591749 0)
(0.805759 0.592244 0)
(0.805395 0.592738 0)
(0.805031 0.593232 0)
(0.804667 0.593727 0)
(0.804303 0.59422 0)
(0.803938 0.594713 0)
(0.803573 0.595206 0)
(0.803207 0.595699 0)
(0.802842 0.596192 0)
(0.802476 0.596684 0)
(0.802109 0.597177 0)
(0.801743 0.597669 0)
(0.801376 0.598161 0)
(0.801009 0.598653 0)
(0.800642 0.599144 0)
(0.800274 0.599635 0)
(0.799906 0.600126 0)
(0.799537 0.600617 0)
(0.799168 0.601107 0)
(0.7988 0.601597 0)
(0.79843 0.602088 0)
(0.798061 0.602577 0)
(0.797691 0.603067 0)
(0.797321 0.603556 0)
(0.79695 0.604045 0)
(0.796579 0.604534 0)
(0.796208 0.605023 0)
(0.795837 0.605511 0)
(0.795465 0.605999 0)
(0.795093 0.606487 0)
(0.794721 0.606975 0)
(0.794348 0.607462 0)
(0.793975 0.60795 0)
(0.793602 0.608437 0)
(0.793229 0.608924 0)
(0.792855 0.609411 0)
(0.792481 0.609897 0)
(0.792106 0.610383 0)
(0.791732 0.610869 0)
(0.791357 0.611355 0)
(0.790981 0.61184 0)
(0.790606 0.612325 0)
(0.79023 0.61281 0)
(0.789854 0.613295 0)
(0.789477 0.61378 0)
(0.7891 0.614264 0)
(0.788724 0.614748 0)
(0.788346 0.615232 0)
(0.787969 0.615715 0)
(0.787591 0.616199 0)
(0.787213 0.616681 0)
(0.786834 0.617165 0)
(0.786455 0.617648 0)
(0.786076 0.61813 0)
(0.785696 0.618612 0)
(0.785317 0.619094 0)
(0.784937 0.619576 0)
(0.784556 0.620058 0)
(0.784176 0.620538 0)
(0.783795 0.62102 0)
(0.783414 0.6215 0)
(0.783032 0.621981 0)
(0.78265 0.622462 0)
(0.782269 0.622941 0)
(0.781886 0.623422 0)
(0.781504 0.623901 0)
(0.78112 0.62438 0)
(0.780737 0.62486 0)
(0.780354 0.625338 0)
(0.77997 0.625817 0)
(0.779586 0.626295 0)
(0.779201 0.626774 0)
(0.778816 0.627252 0)
(0.778431 0.62773 0)
(0.778046 0.628207 0)
(0.777661 0.628684 0)
(0.777274 0.629162 0)
(0.776889 0.629638 0)
(0.776502 0.630115 0)
(0.776115 0.630592 0)
(0.775728 0.631067 0)
(0.775341 0.631543 0)
(0.774953 0.632019 0)
(0.774565 0.632494 0)
(0.774177 0.63297 0)
(0.773788 0.633444 0)
(0.773399 0.633919 0)
(0.773011 0.634393 0)
(0.772621 0.634868 0)
(0.772231 0.635342 0)
(0.771841 0.635815 0)
(0.771451 0.636289 0)
(0.771061 0.636762 0)
(0.77067 0.637235 0)
(0.770278 0.637708 0)
(0.769887 0.63818 0)
(0.769495 0.638653 0)
(0.769103 0.639124 0)
(0.768711 0.639596 0)
(0.768318 0.640068 0)
(0.767926 0.640539 0)
(0.767532 0.641011 0)
(0.767139 0.641481 0)
(0.766745 0.641952 0)
(0.766351 0.642422 0)
(0.765957 0.642892 0)
(0.765562 0.643362 0)
(0.765167 0.643831 0)
(0.764772 0.644301 0)
(0.764377 0.64477 0)
(0.763981 0.645239 0)
(0.763584 0.645708 0)
(0.763188 0.646176 0)
(0.762792 0.646644 0)
(0.762395 0.647112 0)
(0.761998 0.64758 0)
(0.7616 0.648048 0)
(0.761202 0.648514 0)
(0.760804 0.648982 0)
(0.760406 0.649448 0)
(0.760007 0.649915 0)
(0.759608 0.650381 0)
(0.759209 0.650847 0)
(0.758809 0.651313 0)
(0.75841 0.651778 0)
(0.75801 0.652243 0)
(0.75761 0.652708 0)
(0.757209 0.653173 0)
(0.756808 0.653638 0)
(0.756407 0.654101 0)
(0.756005 0.654566 0)
(0.755604 0.655029 0)
(0.755201 0.655493 0)
(0.754799 0.655956 0)
(0.754396 0.656419 0)
(0.753993 0.656882 0)
(0.75359 0.657344 0)
(0.753187 0.657807 0)
(0.752783 0.658269 0)
(0.752379 0.65873 0)
(0.751974 0.659192 0)
(0.75157 0.659653 0)
(0.751165 0.660114 0)
(0.75076 0.660576 0)
(0.750354 0.661036 0)
(0.749948 0.661496 0)
(0.749543 0.661956 0)
(0.749136 0.662416 0)
(0.748729 0.662876 0)
(0.748323 0.663335 0)
(0.747915 0.663794 0)
(0.747508 0.664252 0)
(0.7471 0.664711 0)
(0.746693 0.665169 0)
(0.746284 0.665627 0)
(0.745875 0.666085 0)
(0.745467 0.666543 0)
(0.745058 0.667 0)
(0.744649 0.667457 0)
(0.744239 0.667914 0)
(0.743828 0.668371 0)
(0.743419 0.668827 0)
(0.743008 0.669283 0)
(0.742597 0.669738 0)
(0.742186 0.670194 0)
(0.741774 0.67065 0)
(0.741363 0.671104 0)
(0.740951 0.671559 0)
(0.740539 0.672013 0)
(0.740126 0.672468 0)
(0.739713 0.672922 0)
(0.739301 0.673376 0)
(0.738887 0.673829 0)
(0.738474 0.674282 0)
(0.73806 0.674735 0)
(0.737645 0.675188 0)
(0.737231 0.675641 0)
(0.736816 0.676093 0)
(0.736402 0.676545 0)
(0.735986 0.676997 0)
(0.735571 0.677448 0)
(0.735155 0.677899 0)
(0.734739 0.67835 0)
(0.734323 0.678801 0)
(0.733906 0.679251 0)
(0.733489 0.679701 0)
(0.733072 0.680151 0)
(0.732654 0.680601 0)
(0.732237 0.68105 0)
(0.731818 0.6815 0)
(0.7314 0.681948 0)
(0.730982 0.682397 0)
(0.730562 0.682846 0)
(0.730144 0.683294 0)
(0.729724 0.683742 0)
(0.729305 0.684189 0)
(0.728884 0.684637 0)
(0.728464 0.685084 0)
(0.728044 0.685531 0)
(0.727623 0.685977 0)
(0.727202 0.686423 0)
(0.726781 0.68687 0)
(0.726359 0.687316 0)
(0.725937 0.687761 0)
(0.725515 0.688207 0)
(0.725093 0.688651 0)
(0.72467 0.689096 0)
(0.724247 0.68954 0)
(0.723824 0.689985 0)
(0.7234 0.690429 0)
(0.722977 0.690872 0)
(0.722552 0.691316 0)
(0.722128 0.691759 0)
(0.721704 0.692202 0)
(0.721278 0.692645 0)
(0.720854 0.693087 0)
(0.720428 0.69353 0)
(0.720003 0.693971 0)
(0.719576 0.694413 0)
(0.71915 0.694855 0)
(0.718724 0.695296 0)
(0.718297 0.695737 0)
(0.71787 0.696177 0)
(0.717443 0.696618 0)
(0.717015 0.697058 0)
(0.716587 0.697497 0)
(0.716159 0.697937 0)
(0.715731 0.698376 0)
(0.715302 0.698815 0)
(0.714873 0.699255 0)
(0.714444 0.699693 0)
(0.714014 0.700131 0)
(0.713585 0.700569 0)
(0.713155 0.701007 0)
(0.712725 0.701444 0)
(0.712294 0.701881 0)
(0.711863 0.702318 0)
(0.711432 0.702755 0)
(0.711001 0.703191 0)
(0.710569 0.703627 0)
(0.710137 0.704063 0)
(0.709705 0.704499 0)
(0.709273 0.704934 0)
(0.70884 0.705369 0)
(0.708407 0.705804 0)
(0.707974 0.706239 0)
(0.70754 0.706673 0)
)
;

boundaryField
{
    left
    {
        type            calculated;
        value           uniform (1 0 0);
    }
    right
    {
        type            calculated;
        value           uniform (0.707107 0.707107 0);
    }
    beam
    {
        type            empty;
    }
}


// ************************************************************************* //
