/*--------------------------------*- C++ -*----------------------------------*\
| =========                 |                                                 |
| \\      /  F ield         | foam-extend: Open Source CFD                    |
|  \\    /   O peration     | Version:     4.1                                |
|   \\  /    A nd           | Web:         http://www.foam-extend.org         |
|    \\/     M anipulation  |                                                 |
\*---------------------------------------------------------------------------*/
FoamFile
{
    version     2.0;
    format      ascii;
    class       surfaceVectorField;
    location    "0";
    object      refWf;
}
// * * * * * * * * * * * * * * * * * * * * * * * * * * * * * * * * * * * * * //

dimensions      [0 1 0 0 0 0 0];

internalField   nonuniform List<vector> 
1279
(
(-3.85024e-09 1.88248e-05 0)
(-3.08016e-08 7.52985e-05 0)
(-1.03957e-07 0.000169424 0)
(-2.46416e-07 0.000301197 0)
(-4.8128e-07 0.000470619 0)
(-8.3165e-07 0.00067769 0)
(-1.32064e-06 0.000922414 0)
(-1.97133e-06 0.00120478 0)
(-2.80682e-06 0.0015248 0)
(-3.85023e-06 0.00188247 0)
(-5.12468e-06 0.00227779 0)
(-6.65322e-06 0.00271076 0)
(-8.45897e-06 0.00318137 0)
(-1.0565e-05 0.00368963 0)
(-1.29945e-05 0.00423554 0)
(-1.57706e-05 0.00481911 0)
(-1.89163e-05 0.00544034 0)
(-2.24547e-05 0.00609921 0)
(-2.6409e-05 0.00679572 0)
(-3.08014e-05 0.00752976 0)
(-3.56565e-05 0.00830156 0)
(-4.09968e-05 0.00911101 0)
(-4.68453e-05 0.00995811 0)
(-5.32251e-05 0.0108429 0)
(-6.01593e-05 0.0117652 0)
(-6.76711e-05 0.0127253 0)
(-7.57835e-05 0.013723 0)
(-8.45196e-05 0.0147583 0)
(-9.39026e-05 0.0158313 0)
(-0.000103955 0.0169419 0)
(-0.000114701 0.0180901 0)
(-0.000126163 0.019276 0)
(-0.000138363 0.0204994 0)
(-0.000151326 0.0217606 0)
(-0.000165075 0.0230594 0)
(-0.000179632 0.0243959 0)
(-0.000195021 0.02577 0)
(-0.000211265 0.0271817 0)
(-0.000228386 0.0286311 0)
(-0.000246409 0.0301182 0)
(-0.000265355 0.0316428 0)
(-0.000285248 0.0332051 0)
(-0.000306112 0.0348051 0)
(-0.000327969 0.0364427 0)
(-0.000350842 0.0381179 0)
(-0.000374751 0.0398305 0)
(-0.000399726 0.0415809 0)
(-0.000425787 0.0433691 0)
(-0.000452956 0.0451948 0)
(-0.000481258 0.0470582 0)
(-0.000510714 0.0489592 0)
(-0.000541348 0.0508979 0)
(-0.000573183 0.0528742 0)
(-0.000606243 0.0548881 0)
(-0.00064055 0.0569396 0)
(-0.000676127 0.0590288 0)
(-0.000712998 0.0611556 0)
(-0.000751185 0.06332 0)
(-0.000790705 0.0655217 0)
(-0.000831594 0.0677614 0)
(-0.00087387 0.0700387 0)
(-0.000917554 0.0723536 0)
(-0.00096267 0.0747062 0)
(-0.00100924 0.0770964 0)
(-0.00105729 0.0795242 0)
(-0.00110684 0.0819896 0)
(-0.00115792 0.0844926 0)
(-0.00121054 0.0870333 0)
(-0.00126473 0.0896115 0)
(-0.00132052 0.0922274 0)
(-0.00137792 0.0948809 0)
(-0.00143695 0.0975716 0)
(-0.00149766 0.1003 0)
(-0.00156005 0.103067 0)
(-0.00162415 0.105871 0)
(-0.00168998 0.108712 0)
(-0.00175757 0.111591 0)
(-0.00182693 0.114508 0)
(-0.0018981 0.117462 0)
(-0.00197109 0.120454 0)
(-0.00204593 0.123484 0)
(-0.00212264 0.126551 0)
(-0.00220124 0.129656 0)
(-0.00228176 0.132798 0)
(-0.00236421 0.135978 0)
(-0.00244863 0.139196 0)
(-0.00253503 0.142451 0)
(-0.00262345 0.145744 0)
(-0.0027139 0.149074 0)
(-0.0028064 0.152442 0)
(-0.00290098 0.155848 0)
(-0.00299767 0.159291 0)
(-0.00309647 0.162771 0)
(-0.00319743 0.16629 0)
(-0.00330055 0.169846 0)
(-0.00340587 0.173439 0)
(-0.0035134 0.17707 0)
(-0.00362316 0.180738 0)
(-0.0037352 0.184445 0)
(-0.00384952 0.188189 0)
(-0.00396615 0.19197 0)
(-0.00408511 0.195789 0)
(-0.00420643 0.199646 0)
(-0.00433012 0.20354 0)
(-0.00445622 0.207471 0)
(-0.00458474 0.211441 0)
(-0.00471571 0.215448 0)
(-0.00484914 0.219492 0)
(-0.00498508 0.223574 0)
(-0.00512352 0.227694 0)
(-0.00526449 0.23185 0)
(-0.00540803 0.236045 0)
(-0.00555417 0.240277 0)
(-0.00570291 0.244547 0)
(-0.00585428 0.248854 0)
(-0.00600831 0.253199 0)
(-0.00616502 0.257582 0)
(-0.00632442 0.262002 0)
(-0.00648655 0.266459 0)
(-0.00665143 0.270955 0)
(-0.00681908 0.275487 0)
(-0.00698952 0.280057 0)
(-0.00716277 0.284665 0)
(-0.00733884 0.28931 0)
(-0.00751779 0.293993 0)
(-0.00769963 0.298713 0)
(-0.00788438 0.303471 0)
(-0.00807206 0.308267 0)
(-0.00826269 0.3131 0)
(-0.0084563 0.31797 0)
(-0.00865291 0.322878 0)
(-0.00885255 0.327824 0)
(-0.00905523 0.332807 0)
(-0.00926098 0.337828 0)
(-0.00946982 0.342886 0)
(-0.00968177 0.347982 0)
(-0.00989683 0.353114 0)
(-0.0101151 0.358285 0)
(-0.0103365 0.363493 0)
(-0.0105612 0.368739 0)
(-0.0107891 0.374022 0)
(-0.0110202 0.379343 0)
(-0.0112546 0.384701 0)
(-0.0114923 0.390097 0)
(-0.0117333 0.39553 0)
(-0.0119777 0.401001 0)
(-0.0122254 0.406509 0)
(-0.0124766 0.412055 0)
(-0.0127311 0.417638 0)
(-0.0129891 0.423258 0)
(-0.0132505 0.428916 0)
(-0.0135154 0.434612 0)
(-0.0137839 0.440346 0)
(-0.0140558 0.446116 0)
(-0.0143314 0.451924 0)
(-0.0146104 0.45777 0)
(-0.0148931 0.463653 0)
(-0.0151794 0.469574 0)
(-0.0154694 0.475532 0)
(-0.015763 0.481528 0)
(-0.0160603 0.487561 0)
(-0.0163614 0.493631 0)
(-0.0166663 0.499743 0)
(-0.0169746 0.505883 0)
(-0.0172871 0.51207 0)
(-0.0176029 0.518284 0)
(-0.017923 0.524546 0)
(-0.018247 0.530845 0)
(-0.0185744 0.537172 0)
(-0.0189061 0.543546 0)
(-0.0192413 0.549948 0)
(-0.0195809 0.556397 0)
(-0.019924 0.562873 0)
(-0.0202716 0.569397 0)
(-0.0206232 0.575959 0)
(-0.0209783 0.582547 0)
(-0.021338 0.589184 0)
(-0.0217012 0.595847 0)
(-0.0220691 0.602558 0)
(-0.0224412 0.609307 0)
(-0.0228168 0.616083 0)
(-0.0231971 0.622906 0)
(-0.0235811 0.629757 0)
(-0.0239699 0.636655 0)
(-0.0243629 0.643591 0)
(-0.0247595 0.650554 0)
(-0.0251611 0.657565 0)
(-0.0255664 0.664601 0)
(-0.0259766 0.671687 0)
(-0.0263912 0.678811 0)
(-0.0268095 0.68596 0)
(-0.0272329 0.693158 0)
(-0.02766 0.700381 0)
(-0.0280923 0.707654 0)
(-0.028529 0.714965 0)
(-0.0289696 0.7223 0)
(-0.0294153 0.729686 0)
(-0.0298649 0.737096 0)
(-0.0303197 0.744556 0)
(-0.0307784 0.752041 0)
(-0.0312425 0.759576 0)
(-0.0317112 0.767148 0)
(-0.0321838 0.774745 0)
(-0.0326618 0.782392 0)
(-0.0331438 0.790064 0)
(-0.0336313 0.797785 0)
(-0.0341235 0.805544 0)
(-0.0346197 0.813328 0)
(-0.0351215 0.821162 0)
(-0.0356272 0.82902 0)
(-0.0361387 0.836928 0)
(-0.036655 0.844874 0)
(-0.0371753 0.852844 0)
(-0.0377014 0.860865 0)
(-0.0382316 0.86891 0)
(-0.0387676 0.877005 0)
(-0.0393086 0.885137 0)
(-0.0398537 0.893294 0)
(-0.0404047 0.901501 0)
(-0.0409598 0.909732 0)
(-0.0415209 0.918014 0)
(-0.0420862 0.92632 0)
(-0.0426575 0.934677 0)
(-0.043234 0.943071 0)
(-0.0438147 0.951488 0)
(-0.0444015 0.959957 0)
(-0.0449926 0.968449 0)
(-0.0455898 0.976992 0)
(-0.0461923 0.985572 0)
(-0.0467991 0.994176 0)
(-0.0474122 1.00283 0)
(-0.0480296 1.01151 0)
(-0.0486533 1.02024 0)
(-0.0492824 1.02901 0)
(-0.0499159 1.0378 0)
(-0.0505558 1.04664 0)
(-0.0512001 1.0555 0)
(-0.0518509 1.06442 0)
(-0.0525072 1.07337 0)
(-0.053168 1.08235 0)
(-0.0538353 1.09137 0)
(-0.0545071 1.10043 0)
(-0.0551855 1.10953 0)
(-0.0558696 1.11867 0)
(-0.0565581 1.12783 0)
(-0.0572535 1.13704 0)
(-0.0579533 1.14628 0)
(-0.05866 1.15557 0)
(-0.0593712 1.16488 0)
(-0.0600893 1.17424 0)
(-0.0608132 1.18364 0)
(-0.0615416 1.19306 0)
(-0.0622771 1.20254 0)
(-0.0630171 1.21204 0)
(-0.0637642 1.22159 0)
(-0.0645172 1.23117 0)
(-0.0652749 1.24078 0)
(-0.0660397 1.25044 0)
(-0.0668092 1.26012 0)
(-0.0675859 1.26986 0)
(-0.0683686 1.27963 0)
(-0.069156 1.28942 0)
(-0.0699507 1.29927 0)
(-0.0707502 1.30914 0)
(-0.0715571 1.31906 0)
(-0.07237 1.32902 0)
(-0.0731878 1.339 0)
(-0.074013 1.34903 0)
(-0.074843 1.35908 0)
(-0.0756806 1.36919 0)
(-0.0765244 1.37934 0)
(-0.077373 1.3895 0)
(-0.0782293 1.39972 0)
(-0.0790905 1.40996 0)
(-0.0799594 1.42025 0)
(-0.0808331 1.43056 0)
(-0.0817147 1.44093 0)
(-0.0826026 1.45134 0)
(-0.0834955 1.46176 0)
(-0.0843962 1.47224 0)
(-0.0853019 1.48274 0)
(-0.0862155 1.49329 0)
(-0.0871357 1.50388 0)
(-0.0880608 1.51449 0)
(-0.088994 1.52515 0)
(-0.0899322 1.53584 0)
(-0.0908785 1.54658 0)
(-0.0918314 1.55735 0)
(-0.0927893 1.56815 0)
(-0.0937555 1.579 0)
(-0.0947268 1.58986 0)
(-0.0957063 1.60079 0)
(-0.0966925 1.61175 0)
(-0.0976839 1.62273 0)
(-0.0986836 1.63376 0)
(-0.0996885 1.64482 0)
(-0.100702 1.65593 0)
(-0.101722 1.66707 0)
(-0.102747 1.67824 0)
(-0.103781 1.68946 0)
(-0.10482 1.7007 0)
(-0.105868 1.71199 0)
(-0.106921 1.7233 0)
(-0.107983 1.73467 0)
(-0.109051 1.74608 0)
(-0.110125 1.7575 0)
(-0.111208 1.76898 0)
(-0.112295 1.78048 0)
(-0.113392 1.79203 0)
(-0.114496 1.80362 0)
(-0.115605 1.81523 0)
(-0.116723 1.82689 0)
(-0.117847 1.83858 0)
(-0.118979 1.85031 0)
(-0.120119 1.86209 0)
(-0.121264 1.87388 0)
(-0.122418 1.88573 0)
(-0.123578 1.8976 0)
(-0.124747 1.90952 0)
(-0.125923 1.92148 0)
(-0.127104 1.93346 0)
(-0.128295 1.94549 0)
(-0.129491 1.95754 0)
(-0.130697 1.96965 0)
(-0.13191 1.9818 0)
(-0.133129 1.99396 0)
(-0.134357 2.00618 0)
(-0.13559 2.01841 0)
(-0.136833 2.03071 0)
(-0.138082 2.04301 0)
(-0.13934 2.05538 0)
(-0.140606 2.06778 0)
(-0.141877 2.0802 0)
(-0.143158 2.09268 0)
(-0.144445 2.10517 0)
(-0.145742 2.11772 0)
(-0.147046 2.13031 0)
(-0.148355 2.14292 0)
(-0.149675 2.15558 0)
(-0.151 2.16826 0)
(-0.152336 2.18099 0)
(-0.153679 2.19376 0)
(-0.155027 2.20655 0)
(-0.156386 2.2194 0)
(-0.15775 2.23226 0)
(-0.159125 2.24518 0)
(-0.160508 2.25813 0)
(-0.161896 2.2711 0)
(-0.163294 2.28413 0)
(-0.164698 2.29718 0)
(-0.166113 2.31028 0)
(-0.167533 2.3234 0)
(-0.168964 2.33658 0)
(-0.170402 2.34979 0)
(-0.171847 2.36302 0)
(-0.173302 2.37631 0)
(-0.174763 2.38961 0)
(-0.176234 2.40297 0)
(-0.177713 2.41637 0)
(-0.179199 2.42978 0)
(-0.180695 2.44325 0)
(-0.182197 2.45674 0)
(-0.183709 2.47028 0)
(-0.18523 2.48387 0)
(-0.186757 2.49746 0)
(-0.188295 2.51112 0)
(-0.189838 2.52479 0)
(-0.191393 2.53851 0)
(-0.192955 2.55228 0)
(-0.194524 2.56606 0)
(-0.196104 2.5799 0)
(-0.19769 2.59375 0)
(-0.199287 2.60766 0)
(-0.200892 2.62161 0)
(-0.202503 2.63557 0)
(-0.204126 2.64959 0)
(-0.205754 2.66363 0)
(-0.207394 2.67773 0)
(-0.20904 2.69183 0)
(-0.210697 2.706 0)
(-0.212363 2.72021 0)
(-0.214035 2.73443 0)
(-0.215718 2.74871 0)
(-0.217407 2.763 0)
(-0.219108 2.77735 0)
(-0.220818 2.79174 0)
(-0.222534 2.80614 0)
(-0.224261 2.8206 0)
(-0.225995 2.83508 0)
(-0.22774 2.84961 0)
(-0.229494 2.86418 0)
(-0.231254 2.87877 0)
(-0.233026 2.89341 0)
(-0.234804 2.90807 0)
(-0.236594 2.92279 0)
(-0.238394 2.93754 0)
(-0.240199 2.95231 0)
(-0.242016 2.96714 0)
(-0.243839 2.98198 0)
(-0.245675 2.99688 0)
(-0.24752 3.01181 0)
(-0.24937 3.02676 0)
(-0.251233 3.04177 0)
(-0.253103 3.0568 0)
(-0.254984 3.07188 0)
(-0.256872 3.08698 0)
(-0.258772 3.10213 0)
(-0.260681 3.11732 0)
(-0.262597 3.13253 0)
(-0.264525 3.14779 0)
(-0.266459 3.16307 0)
(-0.268406 3.17841 0)
(-0.270362 3.19379 0)
(-0.272325 3.20917 0)
(-0.2743 3.22462 0)
(-0.276281 3.24008 0)
(-0.278276 3.2556 0)
(-0.280279 3.27116 0)
(-0.282289 3.28673 0)
(-0.284312 3.30236 0)
(-0.286341 3.318 0)
(-0.288383 3.3337 0)
(-0.290435 3.34944 0)
(-0.292493 3.36519 0)
(-0.294564 3.38101 0)
(-0.296642 3.39683 0)
(-0.298732 3.41272 0)
(-0.300832 3.42864 0)
(-0.302939 3.44457 0)
(-0.305059 3.46056 0)
(-0.307185 3.47657 0)
(-0.309325 3.49264 0)
(-0.311471 3.50871 0)
(-0.31363 3.52485 0)
(-0.315799 3.54103 0)
(-0.317975 3.55722 0)
(-0.320164 3.57347 0)
(-0.322359 3.58972 0)
(-0.324569 3.60605 0)
(-0.326788 3.6224 0)
(-0.329013 3.63877 0)
(-0.331252 3.6552 0)
(-0.333498 3.67164 0)
(-0.335758 3.68815 0)
(-0.338027 3.70469 0)
(-0.340303 3.72123 0)
(-0.342593 3.73785 0)
(-0.34489 3.75447 0)
(-0.3472 3.77115 0)
(-0.349521 3.78787 0)
(-0.351848 3.8046 0)
(-0.354189 3.8214 0)
(-0.356536 3.8382 0)
(-0.358898 3.85506 0)
(-0.36127 3.87197 0)
(-0.363649 3.88888 0)
(-0.366042 3.90585 0)
(-0.368442 3.92283 0)
(-0.370856 3.93988 0)
(-0.373276 3.95694 0)
(-0.375711 3.97406 0)
(-0.378156 3.99121 0)
(-0.380608 4.00837 0)
(-0.383074 4.0256 0)
(-0.385547 4.04284 0)
(-0.388035 4.06014 0)
(-0.390533 4.07747 0)
(-0.393038 4.09482 0)
(-0.395558 4.11223 0)
(-0.398084 4.12964 0)
(-0.400625 4.14712 0)
(-0.403176 4.16464 0)
(-0.405735 4.18216 0)
(-0.408308 4.19975 0)
(-0.410888 4.21735 0)
(-0.413483 4.23501 0)
(-0.416088 4.25271 0)
(-0.418701 4.27041 0)
(-0.421328 4.28818 0)
(-0.423962 4.30596 0)
(-0.426612 4.3238 0)
(-0.429268 4.34165 0)
(-0.431939 4.35956 0)
(-0.434621 4.37751 0)
(-0.43731 4.39547 0)
(-0.440014 4.41349 0)
(-0.442725 4.43152 0)
(-0.445452 4.44961 0)
(-0.448189 4.46774 0)
(-0.450934 4.48588 0)
(-0.453694 4.50408 0)
(-0.45646 4.52229 0)
(-0.459243 4.54056 0)
(-0.462036 4.55887 0)
(-0.464836 4.57719 0)
(-0.467652 4.59557 0)
(-0.470475 4.61395 0)
(-0.473314 4.63241 0)
(-0.476164 4.6509 0)
(-0.47902 4.66939 0)
(-0.481893 4.68795 0)
(-0.484772 4.70652 0)
(-0.487668 4.72515 0)
(-0.490575 4.74382 0)
(-0.493489 4.7625 0)
(-0.496419 4.78124 0)
(-0.499355 4.79998 0)
(-0.502308 4.81879 0)
(-0.505268 4.83761 0)
(-0.508244 4.8565 0)
(-0.511232 4.87542 0)
(-0.514226 4.89434 0)
(-0.517237 4.91333 0)
(-0.520255 4.93233 0)
(-0.523289 4.95139 0)
(-0.526335 4.97049 0)
(-0.529388 4.98959 0)
(-0.532457 5.00877 0)
(-0.535533 5.02794 0)
(-0.538627 5.04718 0)
(-0.541731 5.06646 0)
(-0.544843 5.08574 0)
(-0.547972 5.10509 0)
(-0.551107 5.12445 0)
(-0.554259 5.14387 0)
(-0.557424 5.16332 0)
(-0.560595 5.18278 0)
(-0.563783 5.20231 0)
(-0.566978 5.22184 0)
(-0.57019 5.24144 0)
(-0.573415 5.26108 0)
(-0.576646 5.28072 0)
(-0.579894 5.30043 0)
(-0.583149 5.32014 0)
(-0.586422 5.33991 0)
(-0.589701 5.35969 0)
(-0.592998 5.37954 0)
(-0.596307 5.39943 0)
(-0.599623 5.41932 0)
(-0.602957 5.43927 0)
(-0.606297 5.45923 0)
(-0.609655 5.47926 0)
(-0.613026 5.49932 0)
(-0.616403 5.51939 0)
(-0.619798 5.53952 0)
(-0.6232 5.55966 0)
(-0.62662 5.57987 0)
(-0.630052 5.60011 0)
(-0.633491 5.62035 0)
(-0.636948 5.64066 0)
(-0.640412 5.66098 0)
(-0.643894 5.68136 0)
(-0.647389 5.70178 0)
(-0.65089 5.7222 0)
(-0.65441 5.74269 0)
(-0.657937 5.76318 0)
(-0.661482 5.78374 0)
(-0.665039 5.80434 0)
(-0.668604 5.82494 0)
(-0.672186 5.8456 0)
(-0.675776 5.86627 0)
(-0.679384 5.88701 0)
(-0.682999 5.90775 0)
(-0.686633 5.92856 0)
(-0.69028 5.94941 0)
(-0.693933 5.97025 0)
(-0.697605 5.99117 0)
(-0.701284 6.01208 0)
(-0.704982 6.03307 0)
(-0.708693 6.05409 0)
(-0.71241 6.07511 0)
(-0.716147 6.09621 0)
(-0.71989 6.1173 0)
(-0.723653 6.13846 0)
(-0.727429 6.15966 0)
(-0.731211 6.18086 0)
(-0.735012 6.20213 0)
(-0.738821 6.2234 0)
(-0.742649 6.24474 0)
(-0.746489 6.26612 0)
(-0.750337 6.28749 0)
(-0.754204 6.30894 0)
(-0.758078 6.33038 0)
(-0.761972 6.3519 0)
(-0.765878 6.37345 0)
(-0.769792 6.395 0)
(-0.773725 6.41663 0)
(-0.777665 6.43825 0)
(-0.781625 6.45994 0)
(-0.785591 6.48163 0)
(-0.789578 6.5034 0)
(-0.793578 6.5252 0)
(-0.797584 6.54699 0)
(-0.801611 6.56886 0)
(-0.805644 6.59073 0)
(-0.809698 6.61267 0)
(-0.813765 6.63464 0)
(-0.817838 6.65662 0)
(-0.821932 6.67866 0)
(-0.826033 6.70071 0)
(-0.830154 6.72282 0)
(-0.834289 6.74497 0)
(-0.83843 6.76712 0)
(-0.842592 6.78934 0)
(-0.846761 6.81156 0)
(-0.85095 6.83385 0)
(-0.855153 6.85618 0)
(-0.859362 6.8785 0)
(-0.863593 6.9009 0)
(-0.86783 6.92329 0)
(-0.872087 6.94576 0)
(-0.876352 6.96822 0)
(-0.880637 6.99076 0)
(-0.884937 7.01333 0)
(-0.889243 7.0359 0)
(-0.89357 7.05854 0)
(-0.897904 7.08118 0)
(-0.902258 7.10389 0)
(-0.906627 7.12664 0)
(-0.911003 7.14938 0)
(-0.9154 7.1722 0)
(-0.919803 7.19502 0)
(-0.924228 7.2179 0)
(-0.928667 7.24082 0)
(-0.933112 7.26374 0)
(-0.937579 7.28673 0)
(-0.942053 7.30972 0)
(-0.946548 7.33278 0)
(-0.951058 7.35588 0)
(-0.955574 7.37897 0)
(-0.960112 7.40214 0)
(-0.964656 7.4253 0)
(-0.969223 7.44854 0)
(-0.973803 7.47181 0)
(-0.978391 7.49507 0)
(-0.983 7.51841 0)
(-0.987616 7.54175 0)
(-0.992254 7.56516 0)
(-0.996898 7.58857 0)
(-1.00156 7.61205 0)
(-1.00625 7.63556 0)
(-1.01093 7.65907 0)
(-1.01564 7.68265 0)
(-1.02036 7.70623 0)
(-1.0251 7.72989 0)
(-1.02985 7.75358 0)
(-1.03461 7.77726 0)
(-1.0394 7.80102 0)
(-1.04418 7.82477 0)
(-1.049 7.8486 0)
(-1.05382 7.87246 0)
(-1.05866 7.89632 0)
(-1.06351 7.92025 0)
(-1.06837 7.94417 0)
(-1.07326 7.96818 0)
(-1.07816 7.99221 0)
(-1.08307 8.01624 0)
(-1.08799 8.04035 0)
(-1.09293 8.06445 0)
(-1.09789 8.08862 0)
(-1.10286 8.11283 0)
(-1.10784 8.13703 0)
(-1.11285 8.16131 0)
(-1.11786 8.18558 0)
(-1.12289 8.20993 0)
(-1.12793 8.23427 0)
(-1.133 8.25869 0)
(-1.13807 8.28314 0)
(-1.14316 8.30758 0)
(-1.14827 8.3321 0)
(-1.15338 8.35662 0)
(-1.15852 8.3812 0)
(-1.16367 8.40583 0)
(-1.16883 8.43045 0)
(-1.17402 8.45514 0)
(-1.17921 8.47982 0)
(-1.18442 8.50459 0)
(-1.18965 8.52938 0)
(-1.19489 8.55417 0)
(-1.20015 8.57904 0)
(-1.20542 8.60389 0)
(-1.21071 8.62883 0)
(-1.21601 8.6538 0)
(-1.22132 8.67876 0)
(-1.22666 8.70379 0)
(-1.232 8.72882 0)
(-1.23737 8.75393 0)
(-1.24275 8.77907 0)
(-1.24814 8.8042 0)
(-1.25356 8.82941 0)
(-1.25898 8.85461 0)
(-1.26442 8.87989 0)
(-1.26987 8.90516 0)
(-1.27535 8.93051 0)
(-1.28084 8.95589 0)
(-1.28634 8.98126 0)
(-1.29186 9.00671 0)
(-1.29739 9.03215 0)
(-1.30294 9.05767 0)
(-1.30851 9.08322 0)
(-1.31409 9.10876 0)
(-1.31969 9.13438 0)
(-1.32529 9.16 0)
(-1.33093 9.18568 0)
(-1.33657 9.21141 0)
(-1.34223 9.23712 0)
(-1.34791 9.26291 0)
(-1.35359 9.2887 0)
(-1.35931 9.31456 0)
(-1.36503 9.34045 0)
(-1.37077 9.36634 0)
(-1.37652 9.3923 0)
(-1.38229 9.41825 0)
(-1.38808 9.44428 0)
(-1.39389 9.47035 0)
(-1.3997 9.4964 0)
(-1.40554 9.52254 0)
(-1.41139 9.54866 0)
(-1.41726 9.57486 0)
(-1.42313 9.60105 0)
(-1.42904 9.62732 0)
(-1.43496 9.65362 0)
(-1.44088 9.67992 0)
(-1.44683 9.70629 0)
(-1.45279 9.73265 0)
(-1.45878 9.75909 0)
(-1.46478 9.78556 0)
(-1.47078 9.81203 0)
(-1.47681 9.83857 0)
(-1.48285 9.8651 0)
(-1.48892 9.89171 0)
(-1.495 9.91835 0)
(-1.50109 9.94499 0)
(-1.5072 9.9717 0)
(-1.51332 9.9984 0)
(-1.51947 10.0252 0)
(-1.52564 10.052 0)
(-1.53181 10.0788 0)
(-1.538 10.1057 0)
(-1.5442 10.1325 0)
(-1.55043 10.1595 0)
(-1.55667 10.1864 0)
(-1.56293 10.2134 0)
(-1.56921 10.2405 0)
(-1.5755 10.2675 0)
(-1.58181 10.2946 0)
(-1.58813 10.3218 0)
(-1.59448 10.3489 0)
(-1.60084 10.3762 0)
(-1.60721 10.4034 0)
(-1.6136 10.4307 0)
(-1.62001 10.4579 0)
(-1.62644 10.4853 0)
(-1.63288 10.5127 0)
(-1.63933 10.54 0)
(-1.64581 10.5675 0)
(-1.6523 10.5949 0)
(-1.65881 10.6225 0)
(-1.66535 10.65 0)
(-1.67188 10.6776 0)
(-1.67845 10.7052 0)
(-1.68502 10.7328 0)
(-1.69162 10.7605 0)
(-1.69823 10.7882 0)
(-1.70485 10.8159 0)
(-1.7115 10.8437 0)
(-1.71816 10.8715 0)
(-1.72484 10.8994 0)
(-1.73153 10.9272 0)
(-1.73825 10.9551 0)
(-1.74498 10.9831 0)
(-1.75173 11.011 0)
(-1.75849 11.0391 0)
(-1.76527 11.0671 0)
(-1.77207 11.0952 0)
(-1.7789 11.1233 0)
(-1.78572 11.1514 0)
(-1.79258 11.1796 0)
(-1.79944 11.2078 0)
(-1.80633 11.236 0)
(-1.81324 11.2643 0)
(-1.82015 11.2926 0)
(-1.82709 11.321 0)
(-1.83404 11.3493 0)
(-1.84102 11.3778 0)
(-1.84801 11.4062 0)
(-1.85501 11.4347 0)
(-1.86204 11.4632 0)
(-1.86908 11.4917 0)
(-1.87614 11.5203 0)
(-1.88323 11.5489 0)
(-1.89032 11.5775 0)
(-1.89743 11.6062 0)
(-1.90456 11.6349 0)
(-1.91171 11.6637 0)
(-1.91887 11.6924 0)
(-1.92606 11.7212 0)
(-1.93326 11.7501 0)
(-1.94047 11.779 0)
(-1.94771 11.8079 0)
(-1.95496 11.8368 0)
(-1.96224 11.8658 0)
(-1.96953 11.8948 0)
(-1.97683 11.9238 0)
(-1.98416 11.9529 0)
(-1.9915 11.982 0)
(-1.99886 12.0112 0)
(-2.00625 12.0404 0)
(-2.01364 12.0695 0)
(-2.02106 12.0988 0)
(-2.02848 12.128 0)
(-2.03594 12.1574 0)
(-2.04341 12.1867 0)
(-2.05089 12.2161 0)
(-2.0584 12.2455 0)
(-2.06592 12.2749 0)
(-2.07346 12.3044 0)
(-2.08103 12.3339 0)
(-2.0886 12.3634 0)
(-2.0962 12.393 0)
(-2.1038 12.4226 0)
(-2.11144 12.4522 0)
(-2.11908 12.4819 0)
(-2.12676 12.5116 0)
(-2.13445 12.5414 0)
(-2.14214 12.5711 0)
(-2.14987 12.6009 0)
(-2.1576 12.6307 0)
(-2.16537 12.6606 0)
(-2.17315 12.6905 0)
(-2.18094 12.7204 0)
(-2.18876 12.7504 0)
(-2.19659 12.7804 0)
(-2.20444 12.8104 0)
(-2.21232 12.8405 0)
(-2.2202 12.8706 0)
(-2.22811 12.9007 0)
(-2.23603 12.9309 0)
(-2.24397 12.9611 0)
(-2.25194 12.9913 0)
(-2.25992 13.0216 0)
(-2.26792 13.0519 0)
(-2.27593 13.0822 0)
(-2.28397 13.1125 0)
(-2.29203 13.143 0)
(-2.3001 13.1734 0)
(-2.3082 13.2038 0)
(-2.3163 13.2343 0)
(-2.32443 13.2648 0)
(-2.33257 13.2954 0)
(-2.34075 13.326 0)
(-2.34894 13.3566 0)
(-2.35714 13.3872 0)
(-2.36537 13.4179 0)
(-2.3736 13.4486 0)
(-2.38187 13.4794 0)
(-2.39015 13.5102 0)
(-2.39844 13.541 0)
(-2.40677 13.5718 0)
(-2.4151 13.6027 0)
(-2.42346 13.6336 0)
(-2.43184 13.6646 0)
(-2.44022 13.6955 0)
(-2.44864 13.7266 0)
(-2.45707 13.7576 0)
(-2.46552 13.7887 0)
(-2.474 13.8198 0)
(-2.48248 13.8509 0)
(-2.49099 13.8821 0)
(-2.49951 13.9133 0)
(-2.50807 13.9446 0)
(-2.51662 13.9758 0)
(-2.52521 14.0071 0)
(-2.53382 14.0385 0)
(-2.54244 14.0698 0)
(-2.55109 14.1012 0)
(-2.55974 14.1326 0)
(-2.56843 14.1641 0)
(-2.57714 14.1956 0)
(-2.58585 14.2271 0)
(-2.59459 14.2587 0)
(-2.60334 14.2903 0)
(-2.61213 14.3219 0)
(-2.62093 14.3536 0)
(-2.62974 14.3853 0)
(-2.63858 14.417 0)
(-2.64743 14.4487 0)
(-2.65631 14.4805 0)
(-2.66521 14.5124 0)
(-2.67412 14.5442 0)
(-2.68306 14.5761 0)
(-2.692 14.608 0)
(-2.70098 14.64 0)
(-2.70998 14.672 0)
(-2.71898 14.7039 0)
(-2.72802 14.736 0)
(-2.73706 14.768 0)
(-2.74614 14.8002 0)
(-2.75522 14.8323 0)
(-2.76434 14.8645 0)
(-2.77348 14.8967 0)
(-2.78262 14.9289 0)
(-2.79179 14.9612 0)
(-2.80098 14.9935 0)
(-2.81019 15.0258 0)
(-2.81943 15.0582 0)
(-2.82867 15.0906 0)
(-2.83794 15.123 0)
(-2.84722 15.1555 0)
(-2.85654 15.188 0)
(-2.86587 15.2205 0)
(-2.87521 15.253 0)
(-2.88459 15.2856 0)
(-2.89397 15.3182 0)
(-2.90339 15.3509 0)
(-2.91282 15.3836 0)
(-2.92226 15.4163 0)
(-2.93174 15.4491 0)
(-2.94122 15.4818 0)
(-2.95073 15.5147 0)
(-2.96027 15.5475 0)
(-2.96981 15.5804 0)
(-2.97939 15.6133 0)
(-2.98897 15.6462 0)
(-2.99858 15.6792 0)
(-3.00821 15.7122 0)
(-3.01786 15.7452 0)
(-3.02754 15.7783 0)
(-3.03722 15.8114 0)
(-3.04694 15.8445 0)
(-3.05666 15.8776 0)
(-3.06642 15.9109 0)
(-3.0762 15.9441 0)
(-3.08599 15.9773 0)
(-3.09581 16.0106 0)
(-3.10563 16.0439 0)
(-3.11549 16.0773 0)
(-3.12537 16.1107 0)
(-3.13526 16.1441 0)
(-3.14518 16.1775 0)
(-3.15511 16.211 0)
(-3.16507 16.2445 0)
(-3.17506 16.2781 0)
(-3.18505 16.3116 0)
(-3.19507 16.3452 0)
(-3.2051 16.3788 0)
(-3.21517 16.4125 0)
(-3.22526 16.4463 0)
(-3.23535 16.4799 0)
(-3.24548 16.5137 0)
(-3.25561 16.5475 0)
(-3.26578 16.5813 0)
(-3.27596 16.6152 0)
(-3.28617 16.6491 0)
(-3.2964 16.683 0)
(-3.30664 16.7169 0)
(-3.31691 16.7509 0)
(-3.32719 16.7849 0)
(-3.33751 16.819 0)
(-3.34785 16.8531 0)
(-3.35819 16.8871 0)
(-3.36857 16.9213 0)
(-3.37895 16.9554 0)
(-3.38937 16.9897 0)
(-3.39981 17.0239 0)
(-3.41026 17.0581 0)
(-3.42074 17.0924 0)
(-3.43123 17.1267 0)
(-3.44176 17.1611 0)
(-3.45231 17.1955 0)
(-3.46286 17.2299 0)
(-3.47345 17.2644 0)
(-3.48404 17.2988 0)
(-3.49467 17.3334 0)
(-3.50533 17.3679 0)
(-3.51598 17.4025 0)
(-3.52668 17.4371 0)
(-3.53738 17.4717 0)
(-3.54812 17.5064 0)
(-3.55886 17.541 0)
(-3.56964 17.5758 0)
(-3.58044 17.6106 0)
(-3.59125 17.6453 0)
(-3.60209 17.6802 0)
(-3.61294 17.715 0)
(-3.62383 17.7499 0)
(-3.63474 17.7848 0)
(-3.64565 17.8198 0)
(-3.6566 17.8548 0)
(-3.66756 17.8897 0)
(-3.67855 17.9248 0)
(-3.68957 17.9599 0)
(-3.70059 17.9949 0)
(-3.71165 18.0301 0)
(-3.72271 18.0652 0)
(-3.73382 18.1004 0)
(-3.74494 18.1357 0)
(-3.75607 18.1709 0)
(-3.76724 18.2062 0)
(-3.77841 18.2415 0)
(-3.78962 18.2769 0)
(-3.80083 18.3122 0)
(-3.81209 18.3476 0)
(-3.82336 18.3831 0)
(-3.83464 18.4185 0)
(-3.84596 18.4541 0)
(-3.85729 18.4896 0)
(-3.86865 18.5252 0)
(-3.88004 18.5608 0)
(-3.89143 18.5964 0)
(-3.90285 18.632 0)
(-3.91429 18.6677 0)
(-3.92576 18.7034 0)
(-3.93725 18.7392 0)
(-3.94875 18.7749 0)
(-3.96029 18.8108 0)
(-3.97183 18.8466 0)
(-3.98342 18.8825 0)
(-3.99502 18.9184 0)
(-4.00663 18.9543 0)
(-4.01828 18.9903 0)
(-4.02993 19.0262 0)
(-4.04162 19.0623 0)
(-4.05334 19.0983 0)
(-4.06506 19.1344 0)
(-4.07682 19.1705 0)
(-4.08858 19.2066 0)
(-4.10038 19.2428 0)
(-4.11219 19.279 0)
(-4.12404 19.3152 0)
(-4.13591 19.3515 0)
(-4.14778 19.3878 0)
(-4.1597 19.4241 0)
(-4.17162 19.4605 0)
(-4.18358 19.4969 0)
(-4.19556 19.5333 0)
(-4.20754 19.5697 0)
(-4.21957 19.6062 0)
(-4.2316 19.6427 0)
(-4.24367 19.6793 0)
(-4.25577 19.7158 0)
(-4.26786 19.7524 0)
(-4.28 19.7891 0)
(-4.29214 19.8257 0)
(-4.30433 19.8624 0)
(-4.31654 19.8991 0)
(-4.32874 19.9358 0)
(-4.341 19.9726 0)
(-4.35325 20.0094 0)
(-4.36555 20.0463 0)
(-4.37787 20.0832 0)
(-4.39019 20.12 0)
(-4.40256 20.157 0)
(-4.41492 20.1939 0)
(-4.42733 20.2309 0)
(-4.43975 20.2679 0)
(-4.4522 20.305 0)
(-4.46468 20.3421 0)
(-4.47716 20.3792 0)
(-4.48969 20.4163 0)
(-4.50221 20.4535 0)
(-4.51478 20.4907 0)
(-4.52738 20.5279 0)
(-4.53997 20.5652 0)
(-4.55261 20.6025 0)
(-4.56525 20.6397 0)
(-4.57793 20.6771 0)
(-4.59064 20.7145 0)
(-4.60335 20.7519 0)
(-4.6161 20.7894 0)
(-4.62886 20.8268 0)
(-4.64166 20.8643 0)
(-4.65448 20.9019 0)
(-4.6673 20.9394 0)
(-4.68017 20.977 0)
(-4.69304 21.0146 0)
(-4.70596 21.0522 0)
(-4.7189 21.09 0)
(-4.73184 21.1276 0)
(-4.74482 21.1654 0)
(-4.75781 21.2031 0)
(-4.77084 21.2409 0)
(-4.78387 21.2787 0)
(-4.79694 21.3166 0)
(-4.81004 21.3545 0)
(-4.82315 21.3924 0)
(-4.83629 21.4303 0)
(-4.84944 21.4683 0)
(-4.86263 21.5063 0)
(-4.87585 21.5444 0)
(-4.88907 21.5824 0)
(-4.90233 21.6205 0)
(-4.9156 21.6586 0)
(-4.92891 21.6968 0)
(-4.94224 21.735 0)
(-4.95558 21.7731 0)
(-4.96896 21.8114 0)
(-4.98234 21.8496 0)
(-4.99577 21.888 0)
(-5.00922 21.9263 0)
(-5.02267 21.9646 0)
(-5.03617 22.003 0)
(-5.04967 22.0414 0)
(-5.06321 22.0799 0)
(-5.07678 22.1184 0)
(-5.09035 22.1568 0)
(-5.10397 22.1954 0)
(-5.11759 22.2339 0)
(-5.13125 22.2725 0)
(-5.14491 22.3111 0)
(-5.15863 22.3498 0)
(-5.17236 22.3885 0)
(-5.1861 22.4272 0)
(-5.19988 22.4659 0)
(-5.21366 22.5047 0)
(-5.22749 22.5435 0)
(-5.24135 22.5823 0)
(-5.2552 22.6212 0)
(-5.2691 22.6601 0)
(-5.283 22.6989 0)
(-5.29695 22.7379 0)
(-5.31093 22.7769 0)
(-5.3249 22.8159 0)
(-5.33892 22.8549 0)
(-5.35294 22.8939 0)
(-5.36701 22.933 0)
(-5.38111 22.9722 0)
(-5.3952 23.0113 0)
(-5.40934 23.0505 0)
(-5.42348 23.0897 0)
(-5.43767 23.1289 0)
(-5.45188 23.1682 0)
(-5.4661 23.2074 0)
(-5.48036 23.2468 0)
(-5.49462 23.2861 0)
(-5.50893 23.3255 0)
(-5.52324 23.3649 0)
(-5.5376 23.4043 0)
(-5.55198 23.4438 0)
(-5.56637 23.4833 0)
(-5.5808 23.5228 0)
(-5.59523 23.5623 0)
(-5.60971 23.6019 0)
(-5.62421 23.6416 0)
(-5.63872 23.6811 0)
(-5.65327 23.7208 0)
(-5.66782 23.7605 0)
(-5.68242 23.8002 0)
(-5.69705 23.84 0)
(-5.71167 23.8798 0)
(-5.72635 23.9196 0)
(-5.74102 23.9594 0)
(-5.75575 23.9993 0)
(-5.7705 24.0392 0)
(-5.78524 24.0791 0)
(-5.80004 24.1191 0)
(-5.81484 24.159 0)
(-5.82968 24.199 0)
(-5.84453 24.239 0)
(-5.85942 24.2791 0)
(-5.87434 24.3192 0)
(-5.88926 24.3593 0)
(-5.90423 24.3995 0)
(-5.9192 24.4396 0)
(-5.93422 24.4799 0)
(-5.94926 24.5201 0)
(-5.96431 24.5603 0)
(-5.9794 24.6007 0)
(-5.99449 24.6409 0)
(-6.00963 24.6813 0)
(-6.0248 24.7217 0)
(-6.03997 24.7621 0)
(-6.05518 24.8026 0)
(-6.0704 24.843 0)
(-6.08567 24.8835 0)
(-6.10096 24.924 0)
(-6.11625 24.9645 0)
(-6.13159 25.0051 0)
(-6.14693 25.0457 0)
(-6.16232 25.0864 0)
(-6.17774 25.1271 0)
(-6.19315 25.1677 0)
(-6.20862 25.2084 0)
(-6.22408 25.2492 0)
(-6.2396 25.29 0)
(-6.25511 25.3307 0)
(-6.27068 25.3716 0)
(-6.28627 25.4125 0)
(-6.30186 25.4533 0)
(-6.3175 25.4942 0)
(-6.33314 25.5351 0)
(-6.34883 25.5761 0)
(-6.36455 25.6172 0)
(-6.38026 25.6581 0)
(-6.39603 25.6992 0)
(-6.4118 25.7403 0)
(-6.42761 25.7814 0)
(-6.44346 25.8226 0)
(-6.4593 25.8637 0)
(-6.47519 25.9049 0)
(-6.49108 25.9461 0)
(-6.50703 25.9874 0)
(-6.523 26.0287 0)
(-6.53896 26.0699 0)
(-6.55498 26.1113 0)
(-6.571 26.1526 0)
(-6.58707 26.194 0)
(-6.60317 26.2355 0)
(-6.61926 26.2769 0)
(-6.63541 26.3184 0)
(-6.65156 26.3598 0)
(-6.66775 26.4014 0)
(-6.68395 26.4429 0)
(-6.7002 26.4845 0)
(-6.71647 26.5261 0)
(-6.73275 26.5677 0)
(-6.74907 26.6094 0)
(-6.7654 26.6511 0)
(-6.78177 26.6928 0)
(-6.79818 26.7346 0)
(-6.81458 26.7763 0)
(-6.83103 26.8182 0)
(-6.84748 26.86 0)
(-6.86399 26.9018 0)
(-6.88052 26.9438 0)
(-6.89705 26.9856 0)
(-6.91363 27.0276 0)
(-6.93021 27.0695 0)
(-6.94684 27.1115 0)
(-6.9635 27.1536 0)
(-6.98016 27.1956 0)
(-6.99687 27.2377 0)
(-7.01358 27.2798 0)
(-7.03034 27.3219 0)
(-7.04713 27.3641 0)
(-7.06392 27.4063 0)
(-7.08076 27.4485 0)
(-7.0976 27.4907 0)
(-7.11449 27.533 0)
(-7.13138 27.5753 0)
(-7.14833 27.6176 0)
(-7.1653 27.66 0)
(-7.18227 27.7023 0)
(-7.19929 27.7448 0)
(-7.21631 27.7872 0)
(-7.23338 27.8296 0)
(-7.25048 27.8722 0)
(-7.26758 27.9146 0)
(-7.28473 27.9572 0)
(-7.30189 27.9997 0)
(-7.31909 28.0424 0)
(-7.33632 28.085 0)
(-7.35355 28.1276 0)
(-7.37083 28.1703 0)
(-7.38812 28.213 0)
(-7.40545 28.2557 0)
(-7.42281 28.2985 0)
(-7.44017 28.3413 0)
(-7.45759 28.3841 0)
(-7.475 28.4269 0)
(-7.49247 28.4698 0)
(-7.50996 28.5127 0)
(-7.52745 28.5556 0)
(-7.545 28.5986 0)
(-7.56254 28.6415 0)
(-7.58014 28.6845 0)
(-7.59774 28.7275 0)
(-7.61539 28.7706 0)
(-7.63307 28.8137 0)
(-7.65075 28.8568 0)
(-7.66848 28.8999 0)
(-7.68621 28.9431 0)
(-7.70399 28.9863 0)
(-7.7218 29.0295 0)
(-7.73961 29.0727 0)
(-7.75747 29.116 0)
(-7.77533 29.1593 0)
(-7.79325 29.2026 0)
(-7.8112 29.246 0)
)
;

boundaryField
{
    left
    {
        type            calculated;
        value           uniform (0 0 0);
    }
    right
    {
        type            calculated;
        value           uniform (-7.82914 29.2893 0);
    }
    beam
    {
        type            empty;
    }
}


// ************************************************************************* //
