/*--------------------------------*- C++ -*----------------------------------*\
| =========                 |                                                 |
| \\      /  F ield         | foam-extend: Open Source CFD                    |
|  \\    /   O peration     | Version:     4.1                                |
|   \\  /    A nd           | Web:         http://www.foam-extend.org         |
|    \\/     M anipulation  |                                                 |
\*---------------------------------------------------------------------------*/
FoamFile
{
    version     2.0;
    format      ascii;
    class       volVectorField;
    location    "0";
    object      refW;
}
// * * * * * * * * * * * * * * * * * * * * * * * * * * * * * * * * * * * * * //

dimensions      [0 1 0 0 0 0 0];

internalField   nonuniform List<vector> 
1280
(
(-4.8128e-10 4.70619e-06 0)
(-1.29945e-08 4.23555e-05 0)
(-6.016e-08 0.000117655 0)
(-1.6508e-07 0.000230604 0)
(-3.50854e-07 0.000381201 0)
(-6.40583e-07 0.000569448 0)
(-1.05737e-06 0.000795346 0)
(-1.62432e-06 0.00105889 0)
(-2.36453e-06 0.00136009 0)
(-3.3011e-06 0.00169893 0)
(-4.45714e-06 0.00207543 0)
(-5.85574e-06 0.00248957 0)
(-7.52e-06 0.00294136 0)
(-9.47302e-06 0.0034308 0)
(-1.17379e-05 0.00395788 0)
(-1.43378e-05 0.00452262 0)
(-1.72958e-05 0.00512502 0)
(-2.0635e-05 0.00576507 0)
(-2.43784e-05 0.00644276 0)
(-2.85489e-05 0.00715804 0)
(-3.31698e-05 0.00791096 0)
(-3.82646e-05 0.00870158 0)
(-4.38561e-05 0.00952986 0)
(-4.99673e-05 0.0103958 0)
(-5.66215e-05 0.0112993 0)
(-6.38416e-05 0.0122406 0)
(-7.16508e-05 0.0132194 0)
(-8.00721e-05 0.0142359 0)
(-8.91288e-05 0.0152901 0)
(-9.88438e-05 0.0163819 0)
(-0.00010924 0.0175113 0)
(-0.000120341 0.0186784 0)
(-0.000132169 0.019883 0)
(-0.000144748 0.0211253 0)
(-0.000158101 0.0224053 0)
(-0.000172251 0.0237229 0)
(-0.000187221 0.0250782 0)
(-0.000203035 0.0264712 0)
(-0.000219714 0.0279017 0)
(-0.000237283 0.0293699 0)
(-0.000255765 0.0308758 0)
(-0.000275182 0.0324193 0)
(-0.000295558 0.0340004 0)
(-0.000316915 0.0356192 0)
(-0.000339277 0.0372756 0)
(-0.000362665 0.0389695 0)
(-0.000387104 0.040701 0)
(-0.000412619 0.0424703 0)
(-0.000439231 0.0442772 0)
(-0.000466964 0.0461218 0)
(-0.00049584 0.048004 0)
(-0.000525882 0.0499239 0)
(-0.000557114 0.0518813 0)
(-0.000589559 0.0538764 0)
(-0.000623239 0.0559092 0)
(-0.000658178 0.0579795 0)
(-0.000694399 0.0600875 0)
(-0.000731925 0.0622331 0)
(-0.000770776 0.0644162 0)
(-0.000810978 0.0666369 0)
(-0.000852557 0.0688954 0)
(-0.000895534 0.0711915 0)
(-0.000939931 0.0735252 0)
(-0.000985772 0.0758966 0)
(-0.00103308 0.0783056 0)
(-0.00108188 0.0807522 0)
(-0.00113219 0.0832364 0)
(-0.00118403 0.0857582 0)
(-0.00123744 0.0883177 0)
(-0.00129242 0.0909148 0)
(-0.00134901 0.0935495 0)
(-0.00140723 0.0962215 0)
(-0.0014671 0.0989312 0)
(-0.00152864 0.101679 0)
(-0.00159188 0.104464 0)
(-0.00165685 0.107287 0)
(-0.00172355 0.110147 0)
(-0.00179203 0.113045 0)
(-0.00186229 0.115981 0)
(-0.00193437 0.118954 0)
(-0.00200828 0.121965 0)
(-0.00208405 0.125013 0)
(-0.0021617 0.128099 0)
(-0.00224126 0.131223 0)
(-0.00232274 0.134384 0)
(-0.00240617 0.137582 0)
(-0.00249158 0.140818 0)
(-0.00257899 0.144092 0)
(-0.00266842 0.147404 0)
(-0.00275989 0.150753 0)
(-0.00285343 0.15414 0)
(-0.00294906 0.157564 0)
(-0.0030468 0.161026 0)
(-0.00314668 0.164526 0)
(-0.00324872 0.168063 0)
(-0.00335293 0.171638 0)
(-0.00345936 0.17525 0)
(-0.003568 0.1789 0)
(-0.00367889 0.182587 0)
(-0.00379207 0.186312 0)
(-0.00390754 0.190075 0)
(-0.00402534 0.193875 0)
(-0.00414547 0.197713 0)
(-0.00426798 0.201588 0)
(-0.00439287 0.205501 0)
(-0.00452018 0.209451 0)
(-0.00464992 0.21344 0)
(-0.00478212 0.217465 0)
(-0.0049168 0.221528 0)
(-0.00505398 0.225629 0)
(-0.00519369 0.229767 0)
(-0.00533594 0.233943 0)
(-0.00548078 0.238156 0)
(-0.00562821 0.242407 0)
(-0.00577827 0.246696 0)
(-0.00593096 0.251022 0)
(-0.00608633 0.255386 0)
(-0.00624438 0.259787 0)
(-0.00640515 0.264226 0)
(-0.00656865 0.268702 0)
(-0.00673491 0.273216 0)
(-0.00690395 0.277768 0)
(-0.00707579 0.282357 0)
(-0.00725045 0.286983 0)
(-0.00742795 0.291647 0)
(-0.00760835 0.296348 0)
(-0.00779164 0.301087 0)
(-0.00797785 0.305864 0)
(-0.00816701 0.310678 0)
(-0.00835912 0.31553 0)
(-0.00855423 0.320419 0)
(-0.00875235 0.325346 0)
(-0.0089535 0.330311 0)
(-0.00915772 0.335313 0)
(-0.00936501 0.340352 0)
(-0.0095754 0.345429 0)
(-0.00978891 0.350543 0)
(-0.0100056 0.355695 0)
(-0.0102254 0.360884 0)
(-0.0104484 0.366111 0)
(-0.0106747 0.371376 0)
(-0.0109042 0.376678 0)
(-0.011137 0.382017 0)
(-0.011373 0.387394 0)
(-0.0116124 0.392809 0)
(-0.0118551 0.398261 0)
(-0.0121011 0.40375 0)
(-0.0123506 0.409277 0)
(-0.0126034 0.414842 0)
(-0.0128597 0.420444 0)
(-0.0131194 0.426083 0)
(-0.0133825 0.43176 0)
(-0.0136492 0.437474 0)
(-0.0139194 0.443226 0)
(-0.0141931 0.449016 0)
(-0.0144705 0.454843 0)
(-0.0147513 0.460707 0)
(-0.0150358 0.466609 0)
(-0.015324 0.472548 0)
(-0.0156158 0.478525 0)
(-0.0159112 0.48454 0)
(-0.0162104 0.490591 0)
(-0.0165134 0.496683 0)
(-0.01682 0.502808 0)
(-0.0171303 0.508972 0)
(-0.0174445 0.515172 0)
(-0.0177625 0.52141 0)
(-0.0180845 0.527691 0)
(-0.0184102 0.534004 0)
(-0.0187398 0.540354 0)
(-0.0190732 0.546742 0)
(-0.0194106 0.553168 0)
(-0.019752 0.55963 0)
(-0.0200973 0.56613 0)
(-0.0204469 0.572673 0)
(-0.0208003 0.579248 0)
(-0.0211577 0.585861 0)
(-0.0215191 0.592511 0)
(-0.0218847 0.599198 0)
(-0.0222546 0.605928 0)
(-0.0226285 0.61269 0)
(-0.0230064 0.61949 0)
(-0.0233886 0.626327 0)
(-0.0237749 0.633201 0)
(-0.0241658 0.640119 0)
(-0.0245607 0.647068 0)
(-0.0249598 0.654054 0)
(-0.0253632 0.661078 0)
(-0.025771 0.66814 0)
(-0.0261834 0.675244 0)
(-0.0265998 0.68238 0)
(-0.0270207 0.689554 0)
(-0.0274459 0.696765 0)
(-0.0278756 0.704013 0)
(-0.0283101 0.711305 0)
(-0.0287487 0.718628 0)
(-0.0291919 0.725988 0)
(-0.0296395 0.733386 0)
(-0.0300917 0.740821 0)
(-0.0305485 0.748294 0)
(-0.0310099 0.755804 0)
(-0.0314763 0.763357 0)
(-0.0319469 0.770942 0)
(-0.0324222 0.778564 0)
(-0.0329022 0.786223 0)
(-0.0333869 0.79392 0)
(-0.0338768 0.80166 0)
(-0.034371 0.809431 0)
(-0.03487 0.81724 0)
(-0.0353737 0.825086 0)
(-0.0358823 0.832969 0)
(-0.0363962 0.840897 0)
(-0.0369146 0.848855 0)
(-0.0374378 0.85685 0)
(-0.0379659 0.864883 0)
(-0.038499 0.872953 0)
(-0.0390375 0.881066 0)
(-0.0395805 0.889211 0)
(-0.0401285 0.897393 0)
(-0.0406816 0.905612 0)
(-0.0412397 0.913869 0)
(-0.0418029 0.922163 0)
(-0.0423712 0.930494 0)
(-0.0429451 0.938869 0)
(-0.0435237 0.947275 0)
(-0.0441074 0.955718 0)
(-0.0446964 0.964198 0)
(-0.0452905 0.972715 0)
(-0.0458904 0.981277 0)
(-0.046495 0.989869 0)
(-0.047105 0.998499 0)
(-0.0477202 1.00717 0)
(-0.0483408 1.01587 0)
(-0.0489672 1.02462 0)
(-0.0495985 1.0334 0)
(-0.0502352 1.04221 0)
(-0.0508773 1.05106 0)
(-0.0515249 1.05995 0)
(-0.0521784 1.06889 0)
(-0.0528369 1.07785 0)
(-0.0535009 1.08686 0)
(-0.0541705 1.0959 0)
(-0.0548456 1.10497 0)
(-0.0555269 1.11409 0)
(-0.0562132 1.12324 0)
(-0.0569051 1.13243 0)
(-0.0576027 1.14166 0)
(-0.0583059 1.15092 0)
(-0.0590149 1.16022 0)
(-0.0597295 1.16956 0)
(-0.0604505 1.17894 0)
(-0.0611767 1.18835 0)
(-0.0619086 1.1978 0)
(-0.0626464 1.20728 0)
(-0.06339 1.21681 0)
(-0.06414 1.22637 0)
(-0.0648953 1.23597 0)
(-0.0656566 1.24561 0)
(-0.0664237 1.25528 0)
(-0.0671968 1.26499 0)
(-0.0679765 1.27474 0)
(-0.0687615 1.28452 0)
(-0.0695526 1.29434 0)
(-0.0703497 1.3042 0)
(-0.0711529 1.3141 0)
(-0.0719628 1.32404 0)
(-0.0727781 1.334 0)
(-0.0735996 1.34401 0)
(-0.0744272 1.35405 0)
(-0.075261 1.36413 0)
(-0.0761017 1.37426 0)
(-0.0769479 1.38441 0)
(-0.0778004 1.39461 0)
(-0.0786591 1.40483 0)
(-0.0795241 1.4151 0)
(-0.0803955 1.4254 0)
(-0.0812731 1.43574 0)
(-0.0821578 1.44613 0)
(-0.0830482 1.45654 0)
(-0.083945 1.46699 0)
(-0.0848483 1.47748 0)
(-0.0857579 1.48801 0)
(-0.0866748 1.49858 0)
(-0.0875974 1.50918 0)
(-0.0885266 1.51982 0)
(-0.0894622 1.53049 0)
(-0.0904045 1.5412 0)
(-0.0913541 1.55196 0)
(-0.0923095 1.56274 0)
(-0.0932716 1.57357 0)
(-0.0942403 1.58442 0)
(-0.0952157 1.59532 0)
(-0.0961986 1.60626 0)
(-0.0971874 1.61723 0)
(-0.0981829 1.62824 0)
(-0.0991852 1.63929 0)
(-0.100194 1.65037 0)
(-0.101211 1.66149 0)
(-0.102234 1.67265 0)
(-0.103263 1.68384 0)
(-0.1043 1.69507 0)
(-0.105343 1.70634 0)
(-0.106394 1.71764 0)
(-0.107451 1.72898 0)
(-0.108516 1.74037 0)
(-0.109587 1.75178 0)
(-0.110665 1.76324 0)
(-0.111751 1.77472 0)
(-0.112843 1.78625 0)
(-0.113943 1.79782 0)
(-0.11505 1.80942 0)
(-0.116163 1.82106 0)
(-0.117284 1.83273 0)
(-0.118412 1.84444 0)
(-0.119548 1.8562 0)
(-0.120691 1.86798 0)
(-0.12184 1.8798 0)
(-0.122997 1.89166 0)
(-0.124161 1.90356 0)
(-0.125334 1.9155 0)
(-0.126513 1.92747 0)
(-0.127699 1.93947 0)
(-0.128892 1.95151 0)
(-0.130093 1.96359 0)
(-0.131303 1.97572 0)
(-0.132519 1.98787 0)
(-0.133742 2.00006 0)
(-0.134973 2.01229 0)
(-0.136211 2.02455 0)
(-0.137457 2.03686 0)
(-0.13871 2.04919 0)
(-0.139972 2.06158 0)
(-0.141241 2.07399 0)
(-0.142517 2.08644 0)
(-0.143801 2.09892 0)
(-0.145092 2.11144 0)
(-0.146393 2.12401 0)
(-0.1477 2.13661 0)
(-0.149014 2.14924 0)
(-0.150337 2.16191 0)
(-0.151667 2.17462 0)
(-0.153006 2.18737 0)
(-0.154352 2.20015 0)
(-0.155706 2.21297 0)
(-0.157067 2.22582 0)
(-0.158437 2.23871 0)
(-0.159815 2.25165 0)
(-0.161201 2.26461 0)
(-0.162594 2.27761 0)
(-0.163995 2.29065 0)
(-0.165405 2.30373 0)
(-0.166822 2.31684 0)
(-0.168247 2.32999 0)
(-0.169682 2.34318 0)
(-0.171124 2.3564 0)
(-0.172573 2.36966 0)
(-0.174031 2.38296 0)
(-0.175497 2.39629 0)
(-0.176973 2.40967 0)
(-0.178455 2.42307 0)
(-0.179946 2.43651 0)
(-0.181445 2.44999 0)
(-0.182952 2.46351 0)
(-0.184469 2.47707 0)
(-0.185993 2.49066 0)
(-0.187525 2.50428 0)
(-0.189065 2.51795 0)
(-0.190614 2.53165 0)
(-0.192173 2.54539 0)
(-0.193739 2.55916 0)
(-0.195313 2.57297 0)
(-0.196896 2.58682 0)
(-0.198487 2.6007 0)
(-0.200088 2.61463 0)
(-0.201697 2.62859 0)
(-0.203313 2.64258 0)
(-0.204939 2.65661 0)
(-0.206573 2.67067 0)
(-0.208216 2.68478 0)
(-0.209867 2.69891 0)
(-0.211529 2.7131 0)
(-0.213198 2.72731 0)
(-0.214875 2.74156 0)
(-0.216562 2.75585 0)
(-0.218257 2.77017 0)
(-0.219962 2.78454 0)
(-0.221675 2.79893 0)
(-0.223396 2.81337 0)
(-0.225127 2.82783 0)
(-0.226866 2.84234 0)
(-0.228616 2.85689 0)
(-0.230373 2.87147 0)
(-0.232139 2.88609 0)
(-0.233914 2.90074 0)
(-0.235698 2.91542 0)
(-0.237493 2.93016 0)
(-0.239295 2.94492 0)
(-0.241106 2.95972 0)
(-0.242927 2.97455 0)
(-0.244756 2.98942 0)
(-0.246596 3.00434 0)
(-0.248444 3.01928 0)
(-0.250301 3.03426 0)
(-0.252167 3.04928 0)
(-0.254042 3.06433 0)
(-0.255927 3.07942 0)
(-0.257821 3.09455 0)
(-0.259725 3.10972 0)
(-0.261638 3.12492 0)
(-0.26356 3.14016 0)
(-0.265491 3.15543 0)
(-0.267431 3.17074 0)
(-0.269383 3.18609 0)
(-0.271342 3.20148 0)
(-0.273311 3.21689 0)
(-0.27529 3.23235 0)
(-0.277277 3.24784 0)
(-0.279276 3.26338 0)
(-0.281283 3.27894 0)
(-0.2833 3.29454 0)
(-0.285326 3.31018 0)
(-0.287361 3.32585 0)
(-0.289408 3.34157 0)
(-0.291463 3.35731 0)
(-0.293527 3.3731 0)
(-0.295602 3.38891 0)
(-0.297686 3.40477 0)
(-0.299781 3.42067 0)
(-0.301885 3.4366 0)
(-0.303998 3.45256 0)
(-0.306121 3.46856 0)
(-0.308254 3.4846 0)
(-0.310396 3.50067 0)
(-0.312549 3.51678 0)
(-0.314713 3.53294 0)
(-0.316886 3.54912 0)
(-0.319068 3.56534 0)
(-0.32126 3.58159 0)
(-0.323463 3.59788 0)
(-0.325677 3.61422 0)
(-0.327899 3.63058 0)
(-0.330132 3.64698 0)
(-0.332374 3.66342 0)
(-0.334627 3.67989 0)
(-0.336891 3.69641 0)
(-0.339164 3.71296 0)
(-0.341447 3.72954 0)
(-0.34374 3.74615 0)
(-0.346043 3.76281 0)
(-0.348359 3.77951 0)
(-0.350683 3.79623 0)
(-0.353017 3.81299 0)
(-0.355361 3.82979 0)
(-0.357716 3.84663 0)
(-0.360083 3.86351 0)
(-0.362459 3.88042 0)
(-0.364844 3.89736 0)
(-0.367241 3.91434 0)
(-0.369647 3.93135 0)
(-0.372064 3.9484 0)
(-0.374492 3.96549 0)
(-0.376932 3.98263 0)
(-0.379381 3.99979 0)
(-0.38184 4.01698 0)
(-0.384309 4.03422 0)
(-0.38679 4.05148 0)
(-0.389283 4.0688 0)
(-0.391784 4.08614 0)
(-0.394296 4.10352 0)
(-0.396819 4.12093 0)
(-0.399353 4.13838 0)
(-0.401899 4.15588 0)
(-0.404454 4.1734 0)
(-0.40702 4.19095 0)
(-0.409596 4.20855 0)
(-0.412184 4.22618 0)
(-0.414784 4.24385 0)
(-0.417393 4.26156 0)
(-0.420013 4.27929 0)
(-0.422644 4.29707 0)
(-0.425286 4.31487 0)
(-0.427938 4.33272 0)
(-0.430602 4.3506 0)
(-0.433279 4.36853 0)
(-0.435964 4.38649 0)
(-0.438661 4.40447 0)
(-0.441368 4.4225 0)
(-0.444087 4.44056 0)
(-0.446819 4.45867 0)
(-0.44956 4.4768 0)
(-0.452312 4.49497 0)
(-0.455076 4.51318 0)
(-0.45785 4.53142 0)
(-0.460638 4.54971 0)
(-0.463435 4.56802 0)
(-0.466243 4.58637 0)
(-0.469062 4.60476 0)
(-0.471893 4.62318 0)
(-0.474737 4.64165 0)
(-0.477591 4.66014 0)
(-0.480455 4.67867 0)
(-0.483331 4.69723 0)
(-0.486219 4.71583 0)
(-0.48912 4.73448 0)
(-0.49203 4.75315 0)
(-0.494952 4.77186 0)
(-0.497885 4.79061 0)
(-0.50083 4.80938 0)
(-0.503787 4.8282 0)
(-0.506754 4.84705 0)
(-0.509736 4.86595 0)
(-0.512727 4.88487 0)
(-0.51573 4.90383 0)
(-0.518744 4.92283 0)
(-0.52177 4.94186 0)
(-0.524811 4.96094 0)
(-0.52786 4.98004 0)
(-0.530921 4.99918 0)
(-0.533994 5.01835 0)
(-0.537079 5.03756 0)
(-0.540178 5.05682 0)
(-0.543286 5.0761 0)
(-0.546406 5.09541 0)
(-0.549538 5.11476 0)
(-0.552682 5.13415 0)
(-0.55584 5.15359 0)
(-0.559008 5.17305 0)
(-0.562187 5.19254 0)
(-0.565379 5.21207 0)
(-0.568583 5.23164 0)
(-0.571801 5.25126 0)
(-0.575029 5.27089 0)
(-0.578268 5.29057 0)
(-0.58152 5.31028 0)
(-0.584784 5.33002 0)
(-0.58806 5.3498 0)
(-0.591348 5.36961 0)
(-0.594651 5.38948 0)
(-0.597964 5.40937 0)
(-0.601289 5.42929 0)
(-0.604626 5.44925 0)
(-0.607975 5.46924 0)
(-0.611339 5.48929 0)
(-0.614713 5.50935 0)
(-0.618099 5.52945 0)
(-0.621498 5.54959 0)
(-0.624908 5.56976 0)
(-0.628334 5.58998 0)
(-0.63177 5.61022 0)
(-0.635218 5.6305 0)
(-0.638679 5.65082 0)
(-0.642152 5.67116 0)
(-0.64564 5.69157 0)
(-0.649138 5.71199 0)
(-0.652649 5.73244 0)
(-0.656172 5.75293 0)
(-0.659708 5.77346 0)
(-0.663259 5.79404 0)
(-0.66682 5.81463 0)
(-0.670393 5.83527 0)
(-0.67398 5.85594 0)
(-0.677579 5.87664 0)
(-0.68119 5.89738 0)
(-0.684815 5.91815 0)
(-0.688455 5.93898 0)
(-0.692105 5.95982 0)
(-0.695768 5.98071 0)
(-0.699443 6.00162 0)
(-0.703132 6.02257 0)
(-0.706836 6.04358 0)
(-0.71055 6.0646 0)
(-0.714277 6.08566 0)
(-0.718017 6.10675 0)
(-0.72177 6.12788 0)
(-0.725539 6.14906 0)
(-0.729318 6.17026 0)
(-0.73311 6.19149 0)
(-0.736915 6.21276 0)
(-0.740733 6.23407 0)
(-0.744567 6.25542 0)
(-0.748412 6.2768 0)
(-0.752269 6.29821 0)
(-0.75614 6.31966 0)
(-0.760023 6.34114 0)
(-0.763923 6.36267 0)
(-0.767833 6.38422 0)
(-0.771757 6.40581 0)
(-0.775693 6.42743 0)
(-0.779643 6.44909 0)
(-0.783606 6.47078 0)
(-0.787583 6.49251 0)
(-0.791576 6.51429 0)
(-0.795579 6.53609 0)
(-0.799596 6.55792 0)
(-0.803626 6.57979 0)
(-0.807669 6.6017 0)
(-0.811729 6.62365 0)
(-0.8158 6.64563 0)
(-0.819884 6.66764 0)
(-0.823981 6.68968 0)
(-0.828092 6.71176 0)
(-0.83222 6.73389 0)
(-0.836358 6.75604 0)
(-0.840509 6.77823 0)
(-0.844675 6.80045 0)
(-0.848853 6.8227 0)
(-0.853049 6.84501 0)
(-0.857256 6.86734 0)
(-0.861476 6.8897 0)
(-0.865709 6.91209 0)
(-0.869957 6.93452 0)
(-0.874218 6.95699 0)
(-0.878493 6.97949 0)
(-0.882785 7.00204 0)
(-0.887088 7.02461 0)
(-0.891405 7.04722 0)
(-0.895735 7.06986 0)
(-0.900079 7.09253 0)
(-0.904441 7.11526 0)
(-0.908813 7.13801 0)
(-0.913199 7.16079 0)
(-0.9176 7.1836 0)
(-0.922014 7.20645 0)
(-0.926446 7.22936 0)
(-0.930888 7.25228 0)
(-0.935344 7.27523 0)
(-0.939814 7.29822 0)
(-0.944299 7.32125 0)
(-0.948801 7.34433 0)
(-0.953314 7.36742 0)
(-0.957841 7.39055 0)
(-0.962382 7.41371 0)
(-0.966938 7.43691 0)
(-0.971511 7.46017 0)
(-0.976095 7.48343 0)
(-0.980693 7.50674 0)
(-0.985306 7.53008 0)
(-0.989933 7.55345 0)
(-0.994574 7.57686 0)
(-0.99923 7.6003 0)
(-1.0039 7.6238 0)
(-1.00859 7.64731 0)
(-1.01329 7.67086 0)
(-1.018 7.69444 0)
(-1.02273 7.71806 0)
(-1.02747 7.74173 0)
(-1.03223 7.76541 0)
(-1.037 7.78913 0)
(-1.04179 7.81289 0)
(-1.04659 7.83668 0)
(-1.05141 7.86052 0)
(-1.05624 7.88438 0)
(-1.06108 7.90828 0)
(-1.06594 7.93221 0)
(-1.07081 7.95617 0)
(-1.07571 7.98019 0)
(-1.08061 8.00422 0)
(-1.08553 8.02829 0)
(-1.09046 8.05239 0)
(-1.09541 8.07653 0)
(-1.10037 8.10072 0)
(-1.10535 8.12493 0)
(-1.11034 8.14917 0)
(-1.11535 8.17344 0)
(-1.12037 8.19775 0)
(-1.12541 8.2221 0)
(-1.13046 8.24647 0)
(-1.13553 8.27091 0)
(-1.14061 8.29536 0)
(-1.14571 8.31984 0)
(-1.15082 8.34435 0)
(-1.15595 8.36891 0)
(-1.1611 8.39351 0)
(-1.16625 8.41813 0)
(-1.17142 8.44279 0)
(-1.17661 8.46748 0)
(-1.18181 8.4922 0)
(-1.18704 8.51698 0)
(-1.19227 8.54177 0)
(-1.19752 8.5666 0)
(-1.20278 8.59146 0)
(-1.20806 8.61636 0)
(-1.21336 8.64131 0)
(-1.21867 8.66627 0)
(-1.22399 8.69127 0)
(-1.22933 8.7163 0)
(-1.23468 8.74137 0)
(-1.24006 8.76649 0)
(-1.24545 8.79163 0)
(-1.25085 8.8168 0)
(-1.25626 8.84201 0)
(-1.2617 8.86725 0)
(-1.26714 8.89252 0)
(-1.27261 8.91783 0)
(-1.27809 8.94319 0)
(-1.28359 8.96857 0)
(-1.2891 8.99398 0)
(-1.29462 9.01943 0)
(-1.30016 9.0449 0)
(-1.30572 9.07044 0)
(-1.3113 9.09599 0)
(-1.31688 9.12157 0)
(-1.32249 9.14719 0)
(-1.32811 9.17284 0)
(-1.33375 9.19854 0)
(-1.3394 9.22426 0)
(-1.34507 9.25001 0)
(-1.35075 9.2758 0)
(-1.35645 9.30162 0)
(-1.36217 9.3275 0)
(-1.3679 9.35339 0)
(-1.37364 9.37931 0)
(-1.37941 9.40527 0)
(-1.38518 9.43126 0)
(-1.39098 9.45731 0)
(-1.39679 9.48337 0)
(-1.40262 9.50947 0)
(-1.40846 9.53559 0)
(-1.41432 9.56176 0)
(-1.42019 9.58795 0)
(-1.42608 9.61418 0)
(-1.43199 9.64047 0)
(-1.43792 9.66677 0)
(-1.44386 9.6931 0)
(-1.44981 9.71947 0)
(-1.45578 9.74587 0)
(-1.46177 9.77232 0)
(-1.46778 9.79879 0)
(-1.4738 9.82529 0)
(-1.47983 9.85183 0)
(-1.48588 9.8784 0)
(-1.49196 9.90503 0)
(-1.49804 9.93166 0)
(-1.50414 9.95834 0)
(-1.51026 9.98504 0)
(-1.5164 10.0118 0)
(-1.52255 10.0386 0)
(-1.52872 10.0654 0)
(-1.5349 10.0922 0)
(-1.5411 10.1191 0)
(-1.54732 10.146 0)
(-1.55355 10.173 0)
(-1.5598 10.1999 0)
(-1.56607 10.227 0)
(-1.57235 10.254 0)
(-1.57865 10.2811 0)
(-1.58497 10.3082 0)
(-1.5913 10.3353 0)
(-1.59766 10.3625 0)
(-1.60402 10.3898 0)
(-1.6104 10.417 0)
(-1.6168 10.4443 0)
(-1.62322 10.4716 0)
(-1.62966 10.499 0)
(-1.63611 10.5264 0)
(-1.64257 10.5538 0)
(-1.64906 10.5812 0)
(-1.65556 10.6087 0)
(-1.66208 10.6362 0)
(-1.66861 10.6638 0)
(-1.67516 10.6914 0)
(-1.68173 10.719 0)
(-1.68831 10.7466 0)
(-1.69492 10.7743 0)
(-1.70154 10.8021 0)
(-1.70818 10.8298 0)
(-1.71483 10.8576 0)
(-1.7215 10.8854 0)
(-1.72818 10.9133 0)
(-1.73489 10.9412 0)
(-1.74161 10.9691 0)
(-1.74835 10.9971 0)
(-1.75511 11.025 0)
(-1.76188 11.0531 0)
(-1.76867 11.0811 0)
(-1.77548 11.1092 0)
(-1.78231 11.1373 0)
(-1.78915 11.1655 0)
(-1.79601 11.1937 0)
(-1.80288 11.2219 0)
(-1.80978 11.2502 0)
(-1.81669 11.2785 0)
(-1.82362 11.3068 0)
(-1.83057 11.3351 0)
(-1.83753 11.3635 0)
(-1.84451 11.392 0)
(-1.85151 11.4204 0)
(-1.85853 11.4489 0)
(-1.86556 11.4774 0)
(-1.87261 11.506 0)
(-1.87968 11.5346 0)
(-1.88677 11.5632 0)
(-1.89387 11.5919 0)
(-1.90099 11.6206 0)
(-1.90813 11.6493 0)
(-1.91529 11.678 0)
(-1.92246 11.7068 0)
(-1.92966 11.7357 0)
(-1.93686 11.7645 0)
(-1.94409 11.7934 0)
(-1.95134 11.8223 0)
(-1.9586 11.8513 0)
(-1.96588 11.8803 0)
(-1.97318 11.9093 0)
(-1.9805 11.9384 0)
(-1.98783 11.9675 0)
(-1.99518 11.9966 0)
(-2.00255 12.0258 0)
(-2.00994 12.0549 0)
(-2.01735 12.0842 0)
(-2.02477 12.1134 0)
(-2.03221 12.1427 0)
(-2.03967 12.172 0)
(-2.04715 12.2014 0)
(-2.05464 12.2308 0)
(-2.06216 12.2602 0)
(-2.06969 12.2896 0)
(-2.07724 12.3191 0)
(-2.08481 12.3487 0)
(-2.09239 12.3782 0)
(-2.1 12.4078 0)
(-2.10762 12.4374 0)
(-2.11526 12.4671 0)
(-2.12292 12.4967 0)
(-2.1306 12.5265 0)
(-2.13829 12.5562 0)
(-2.146 12.586 0)
(-2.15374 12.6158 0)
(-2.16148 12.6457 0)
(-2.16926 12.6756 0)
(-2.17704 12.7055 0)
(-2.18485 12.7354 0)
(-2.19267 12.7654 0)
(-2.20051 12.7954 0)
(-2.20838 12.8255 0)
(-2.21625 12.8555 0)
(-2.22415 12.8857 0)
(-2.23206 12.9158 0)
(-2.24 12.946 0)
(-2.24796 12.9762 0)
(-2.25593 13.0064 0)
(-2.26391 13.0367 0)
(-2.27192 13.067 0)
(-2.27995 13.0974 0)
(-2.288 13.1277 0)
(-2.29606 13.1581 0)
(-2.30414 13.1886 0)
(-2.31224 13.2191 0)
(-2.32036 13.2496 0)
(-2.3285 13.2801 0)
(-2.33666 13.3107 0)
(-2.34484 13.3413 0)
(-2.35304 13.3719 0)
(-2.36125 13.4026 0)
(-2.36948 13.4333 0)
(-2.37773 13.464 0)
(-2.38601 13.4948 0)
(-2.3943 13.5256 0)
(-2.4026 13.5564 0)
(-2.41093 13.5873 0)
(-2.41927 13.6182 0)
(-2.42765 13.6491 0)
(-2.43603 13.6801 0)
(-2.44443 13.7111 0)
(-2.45285 13.7421 0)
(-2.46129 13.7731 0)
(-2.46976 13.8042 0)
(-2.47824 13.8354 0)
(-2.48674 13.8665 0)
(-2.49525 13.8977 0)
(-2.50379 13.9289 0)
(-2.51234 13.9602 0)
(-2.52092 13.9914 0)
(-2.52952 14.0228 0)
(-2.53813 14.0541 0)
(-2.54676 14.0855 0)
(-2.55541 14.1169 0)
(-2.56408 14.1484 0)
(-2.57278 14.1799 0)
(-2.58149 14.2114 0)
(-2.59022 14.2429 0)
(-2.59896 14.2745 0)
(-2.60773 14.3061 0)
(-2.61653 14.3378 0)
(-2.62533 14.3694 0)
(-2.63416 14.4011 0)
(-2.643 14.4329 0)
(-2.65187 14.4646 0)
(-2.66076 14.4965 0)
(-2.66966 14.5283 0)
(-2.67858 14.5601 0)
(-2.68753 14.592 0)
(-2.69649 14.624 0)
(-2.70548 14.656 0)
(-2.71448 14.6879 0)
(-2.7235 14.72 0)
(-2.73254 14.752 0)
(-2.7416 14.7841 0)
(-2.75068 14.8162 0)
(-2.75978 14.8484 0)
(-2.76891 14.8806 0)
(-2.77804 14.9128 0)
(-2.7872 14.9451 0)
(-2.79638 14.9773 0)
(-2.80558 15.0096 0)
(-2.81481 15.042 0)
(-2.82405 15.0744 0)
(-2.8333 15.1068 0)
(-2.84258 15.1392 0)
(-2.85188 15.1717 0)
(-2.8612 15.2042 0)
(-2.87054 15.2368 0)
(-2.8799 15.2693 0)
(-2.88928 15.3019 0)
(-2.89868 15.3346 0)
(-2.9081 15.3673 0)
(-2.91754 15.4 0)
(-2.927 15.4327 0)
(-2.93647 15.4654 0)
(-2.94597 15.4982 0)
(-2.9555 15.5311 0)
(-2.96504 15.5639 0)
(-2.9746 15.5968 0)
(-2.98417 15.6297 0)
(-2.99377 15.6627 0)
(-3.00339 15.6957 0)
(-3.01303 15.7287 0)
(-3.0227 15.7618 0)
(-3.03238 15.7948 0)
(-3.04208 15.8279 0)
(-3.0518 15.8611 0)
(-3.06154 15.8942 0)
(-3.07131 15.9275 0)
(-3.08109 15.9607 0)
(-3.09089 15.994 0)
(-3.10072 16.0273 0)
(-3.11056 16.0606 0)
(-3.12043 16.094 0)
(-3.13032 16.1274 0)
(-3.14022 16.1608 0)
(-3.15014 16.1943 0)
(-3.16009 16.2278 0)
(-3.17006 16.2613 0)
(-3.18005 16.2948 0)
(-3.19006 16.3284 0)
(-3.20009 16.362 0)
(-3.21013 16.3957 0)
(-3.22021 16.4294 0)
(-3.2303 16.4631 0)
(-3.24041 16.4968 0)
(-3.25054 16.5306 0)
(-3.26069 16.5644 0)
(-3.27087 16.5982 0)
(-3.28106 16.6321 0)
(-3.29128 16.666 0)
(-3.30152 16.7 0)
(-3.31177 16.7339 0)
(-3.32205 16.7679 0)
(-3.33235 16.8019 0)
(-3.34268 16.836 0)
(-3.35301 16.8701 0)
(-3.36338 16.9042 0)
(-3.37376 16.9384 0)
(-3.38416 16.9725 0)
(-3.39459 17.0068 0)
(-3.40503 17.041 0)
(-3.4155 17.0753 0)
(-3.42599 17.1096 0)
(-3.43649 17.1439 0)
(-3.44703 17.1783 0)
(-3.45758 17.2127 0)
(-3.46815 17.2471 0)
(-3.47874 17.2816 0)
(-3.48935 17.3161 0)
(-3.5 17.3506 0)
(-3.51065 17.3852 0)
(-3.52133 17.4198 0)
(-3.53203 17.4544 0)
(-3.54275 17.489 0)
(-3.55349 17.5237 0)
(-3.56425 17.5584 0)
(-3.57504 17.5932 0)
(-3.58584 17.628 0)
(-3.59667 17.6628 0)
(-3.60751 17.6976 0)
(-3.61838 17.7325 0)
(-3.62928 17.7674 0)
(-3.64019 17.8023 0)
(-3.65112 17.8373 0)
(-3.66208 17.8722 0)
(-3.67305 17.9073 0)
(-3.68406 17.9423 0)
(-3.69508 17.9774 0)
(-3.70612 18.0125 0)
(-3.71718 18.0477 0)
(-3.72826 18.0828 0)
(-3.73938 18.1181 0)
(-3.7505 18.1533 0)
(-3.76165 18.1886 0)
(-3.77282 18.2239 0)
(-3.78401 18.2592 0)
(-3.79522 18.2945 0)
(-3.80646 18.3299 0)
(-3.81772 18.3654 0)
(-3.829 18.4008 0)
(-3.8403 18.4363 0)
(-3.85162 18.4718 0)
(-3.86297 18.5074 0)
(-3.87434 18.543 0)
(-3.88573 18.5786 0)
(-3.89714 18.6142 0)
(-3.90857 18.6499 0)
(-3.92002 18.6855 0)
(-3.9315 18.7213 0)
(-3.943 18.7571 0)
(-3.95452 18.7928 0)
(-3.96606 18.8287 0)
(-3.97762 18.8645 0)
(-3.98922 18.9004 0)
(-4.00082 18.9363 0)
(-4.01245 18.9723 0)
(-4.0241 19.0082 0)
(-4.03577 19.0442 0)
(-4.04748 19.0803 0)
(-4.05919 19.1164 0)
(-4.07093 19.1524 0)
(-4.08269 19.1886 0)
(-4.09448 19.2247 0)
(-4.10628 19.2609 0)
(-4.11811 19.2971 0)
(-4.12997 19.3334 0)
(-4.14184 19.3697 0)
(-4.15374 19.406 0)
(-4.16565 19.4423 0)
(-4.17759 19.4787 0)
(-4.18956 19.5151 0)
(-4.20155 19.5515 0)
(-4.21355 19.588 0)
(-4.22558 19.6245 0)
(-4.23763 19.661 0)
(-4.24972 19.6975 0)
(-4.26181 19.7341 0)
(-4.27393 19.7707 0)
(-4.28607 19.8074 0)
(-4.29823 19.844 0)
(-4.31043 19.8808 0)
(-4.32264 19.9175 0)
(-4.33487 19.9542 0)
(-4.34712 19.991 0)
(-4.3594 20.0278 0)
(-4.37171 20.0647 0)
(-4.38403 20.1016 0)
(-4.39637 20.1385 0)
(-4.40874 20.1754 0)
(-4.42113 20.2124 0)
(-4.43354 20.2494 0)
(-4.44597 20.2864 0)
(-4.45844 20.3235 0)
(-4.47092 20.3606 0)
(-4.48342 20.3977 0)
(-4.49595 20.4349 0)
(-4.50849 20.4721 0)
(-4.52108 20.5093 0)
(-4.53367 20.5465 0)
(-4.54629 20.5838 0)
(-4.55893 20.6211 0)
(-4.57159 20.6584 0)
(-4.58428 20.6958 0)
(-4.59699 20.7332 0)
(-4.60972 20.7706 0)
(-4.62248 20.8081 0)
(-4.63526 20.8455 0)
(-4.64807 20.8831 0)
(-4.66089 20.9206 0)
(-4.67374 20.9582 0)
(-4.68661 20.9958 0)
(-4.6995 21.0334 0)
(-4.71242 21.0711 0)
(-4.72536 21.1088 0)
(-4.73832 21.1465 0)
(-4.75131 21.1842 0)
(-4.76432 21.222 0)
(-4.77735 21.2598 0)
(-4.7904 21.2977 0)
(-4.80349 21.3355 0)
(-4.81659 21.3734 0)
(-4.82972 21.4114 0)
(-4.84286 21.4493 0)
(-4.85604 21.4873 0)
(-4.86924 21.5253 0)
(-4.88246 21.5634 0)
(-4.8957 21.6014 0)
(-4.90896 21.6395 0)
(-4.92225 21.6777 0)
(-4.93557 21.7159 0)
(-4.94891 21.7541 0)
(-4.96226 21.7923 0)
(-4.97565 21.8305 0)
(-4.98905 21.8688 0)
(-5.00249 21.9071 0)
(-5.01594 21.9455 0)
(-5.02942 21.9838 0)
(-5.04292 22.0222 0)
(-5.05644 22.0606 0)
(-5.06999 22.0991 0)
(-5.08356 22.1376 0)
(-5.09716 22.1761 0)
(-5.11077 22.2147 0)
(-5.12442 22.2532 0)
(-5.13808 22.2918 0)
(-5.15177 22.3305 0)
(-5.16549 22.3692 0)
(-5.17923 22.4078 0)
(-5.19298 22.4466 0)
(-5.20677 22.4853 0)
(-5.22057 22.5241 0)
(-5.23442 22.5629 0)
(-5.24827 22.6017 0)
(-5.26215 22.6406 0)
(-5.27605 22.6795 0)
(-5.28998 22.7184 0)
(-5.30394 22.7574 0)
(-5.31791 22.7964 0)
(-5.33191 22.8354 0)
(-5.34593 22.8744 0)
(-5.35997 22.9135 0)
(-5.37406 22.9526 0)
(-5.38815 22.9917 0)
(-5.40227 23.0309 0)
(-5.41641 23.0701 0)
(-5.43057 23.1093 0)
(-5.44477 23.1485 0)
(-5.45899 23.1878 0)
(-5.47323 23.2271 0)
(-5.48749 23.2664 0)
(-5.50177 23.3058 0)
(-5.51608 23.3452 0)
(-5.53042 23.3846 0)
(-5.54479 23.4241 0)
(-5.55917 23.4635 0)
(-5.57358 23.503 0)
(-5.58801 23.5426 0)
(-5.60247 23.5821 0)
(-5.61696 23.6217 0)
(-5.63146 23.6613 0)
(-5.64599 23.701 0)
(-5.66054 23.7407 0)
(-5.67512 23.7804 0)
(-5.68973 23.8201 0)
(-5.70436 23.8599 0)
(-5.71901 23.8997 0)
(-5.73368 23.9395 0)
(-5.74838 23.9793 0)
(-5.76312 24.0192 0)
(-5.77787 24.0591 0)
(-5.79264 24.0991 0)
(-5.80744 24.139 0)
(-5.82226 24.179 0)
(-5.8371 24.219 0)
(-5.85197 24.2591 0)
(-5.86688 24.2992 0)
(-5.8818 24.3393 0)
(-5.89675 24.3794 0)
(-5.91171 24.4196 0)
(-5.92671 24.4597 0)
(-5.94174 24.5 0)
(-5.95678 24.5402 0)
(-5.97185 24.5805 0)
(-5.98694 24.6208 0)
(-6.00206 24.6611 0)
(-6.01721 24.7015 0)
(-6.03238 24.7419 0)
(-6.04757 24.7823 0)
(-6.06279 24.8228 0)
(-6.07803 24.8632 0)
(-6.09331 24.9038 0)
(-6.1086 24.9443 0)
(-6.12392 24.9848 0)
(-6.13926 25.0254 0)
(-6.15462 25.066 0)
(-6.17002 25.1067 0)
(-6.18544 25.1474 0)
(-6.20088 25.1881 0)
(-6.21635 25.2288 0)
(-6.23184 25.2695 0)
(-6.24735 25.3103 0)
(-6.26289 25.3511 0)
(-6.27847 25.392 0)
(-6.29406 25.4329 0)
(-6.30968 25.4738 0)
(-6.32532 25.5147 0)
(-6.34098 25.5556 0)
(-6.35669 25.5966 0)
(-6.3724 25.6376 0)
(-6.38814 25.6787 0)
(-6.40391 25.7197 0)
(-6.4197 25.7608 0)
(-6.43553 25.802 0)
(-6.45137 25.8431 0)
(-6.46724 25.8843 0)
(-6.48313 25.9255 0)
(-6.49905 25.9667 0)
(-6.51501 26.008 0)
(-6.53098 26.0493 0)
(-6.54697 26.0906 0)
(-6.56299 26.1319 0)
(-6.57903 26.1733 0)
(-6.59512 26.2147 0)
(-6.61121 26.2562 0)
(-6.62733 26.2976 0)
(-6.64348 26.3391 0)
(-6.65965 26.3806 0)
(-6.67585 26.4221 0)
(-6.69207 26.4637 0)
(-6.70833 26.5053 0)
(-6.72461 26.5469 0)
(-6.74091 26.5886 0)
(-6.75723 26.6303 0)
(-6.77358 26.672 0)
(-6.78997 26.7137 0)
(-6.80637 26.7555 0)
(-6.8228 26.7972 0)
(-6.83925 26.8391 0)
(-6.85573 26.8809 0)
(-6.87225 26.9228 0)
(-6.88878 26.9647 0)
(-6.90534 27.0066 0)
(-6.92192 27.0486 0)
(-6.93852 27.0905 0)
(-6.95517 27.1326 0)
(-6.97183 27.1746 0)
(-6.98851 27.2167 0)
(-7.00522 27.2587 0)
(-7.02196 27.3009 0)
(-7.03874 27.343 0)
(-7.05552 27.3852 0)
(-7.07234 27.4274 0)
(-7.08918 27.4696 0)
(-7.10604 27.5119 0)
(-7.12293 27.5541 0)
(-7.13985 27.5964 0)
(-7.15681 27.6388 0)
(-7.17378 27.6812 0)
(-7.19077 27.7235 0)
(-7.20779 27.766 0)
(-7.22484 27.8084 0)
(-7.24193 27.8509 0)
(-7.25903 27.8934 0)
(-7.27615 27.9359 0)
(-7.29331 27.9785 0)
(-7.31048 28.021 0)
(-7.3277 28.0637 0)
(-7.34493 28.1063 0)
(-7.36219 28.149 0)
(-7.37947 28.1916 0)
(-7.39678 28.2344 0)
(-7.41413 28.2771 0)
(-7.43149 28.3199 0)
(-7.44888 28.3627 0)
(-7.46629 28.4055 0)
(-7.48373 28.4483 0)
(-7.50121 28.4913 0)
(-7.5187 28.5342 0)
(-7.53622 28.5771 0)
(-7.55377 28.62 0)
(-7.57134 28.663 0)
(-7.58894 28.706 0)
(-7.60656 28.7491 0)
(-7.62423 28.7921 0)
(-7.6419 28.8352 0)
(-7.65961 28.8783 0)
(-7.67734 28.9215 0)
(-7.69509 28.9647 0)
(-7.71289 29.0079 0)
(-7.7307 29.0511 0)
(-7.74854 29.0944 0)
(-7.7664 29.1376 0)
(-7.78429 29.1809 0)
(-7.80222 29.2243 0)
(-7.82016 29.2676 0)
)
;

boundaryField
{
    left
    {
        type            calculated;
        value           uniform (0 0 0);
    }
    right
    {
        type            calculated;
        value           uniform (-7.82914 29.2893 0);
    }
    beam
    {
        type            empty;
    }
}


// ************************************************************************* //
