/*--------------------------------*- C++ -*----------------------------------*\
| =========                 |                                                 |
| \\      /  F ield         | OpenFOAM: The Open Source CFD Toolbox           |
|  \\    /   O peration     | Version:  2312                                  |
|   \\  /    A nd           | Website:  www.openfoam.com                      |
|    \\/     M anipulation  |                                                 |
\*---------------------------------------------------------------------------*/
FoamFile
{
    version     2.0;
    format      ascii;
    arch        "LSB;label=32;scalar=64";
    class       volScalarField;
    location    "0.01";
    object      p;
}
// * * * * * * * * * * * * * * * * * * * * * * * * * * * * * * * * * * * * * //

dimensions      [1 -1 -2 0 0 0 0];

internalField   nonuniform List<scalar> 
299556
(
19.37475067
19.37475202
19.37475337
19.37475474
19.37475612
19.37475753
19.37475897
19.37476045
19.37476197
19.37476353
19.37476515
19.37476682
19.37476856
19.37477036
19.37477224
19.3747742
19.37477624
19.37477836
19.37478058
19.3747829
19.37478531
19.37478783
19.37479046
19.3747932
19.37479605
19.37479901
19.37480208
19.37480527
19.37480857
19.37481198
19.3748155
19.37481912
19.37482283
19.37482663
19.37483051
19.37483447
19.37483848
19.37484253
19.37484662
19.37485072
19.37485481
19.37485888
19.3748629
19.37486686
19.37487072
19.37487447
19.37487808
19.37488151
19.37488476
19.37488779
19.37489057
19.37489309
19.37489531
19.37489722
19.3748988
19.37490002
19.37490087
19.37490134
19.37490141
19.37490108
19.37490035
19.37489921
19.37489766
19.3748957
19.37489335
19.37489062
19.3748875
19.37488403
19.37488021
19.37487606
19.3748716
19.37486686
19.37486184
19.37485658
19.37485109
19.37484539
19.37483951
19.37483346
19.37482726
19.37482092
19.37481448
19.37480793
19.3748013
19.37479459
19.37478783
19.37478101
19.37477416
19.37476728
19.37476037
19.37475346
19.37475201
19.37475604
19.37476009
19.37476418
19.37476833
19.37477255
19.37477687
19.37478129
19.37478583
19.37479052
19.37479536
19.37480037
19.37480556
19.37481097
19.37481659
19.37482244
19.37482855
19.37483491
19.37484156
19.37484849
19.37485573
19.37486327
19.37487114
19.37487933
19.37488786
19.37489673
19.37490593
19.37491548
19.37492536
19.37493557
19.3749461
19.37495693
19.37496805
19.37497944
19.37499106
19.3750029
19.37501491
19.37502705
19.37503928
19.37505155
19.37506381
19.37507599
19.37508804
19.37509989
19.37511146
19.37512268
19.37513348
19.37514378
19.3751535
19.37516257
19.37517091
19.37517844
19.3751851
19.37519082
19.37519553
19.37519919
19.37520174
19.37520314
19.37520337
19.37520239
19.37520019
19.37519677
19.37519213
19.37518628
19.37517924
19.37517104
19.37516172
19.37515132
19.37513988
19.37512746
19.37511411
19.3750999
19.37508488
19.37506912
19.37505268
19.37503562
19.37501801
19.37499988
19.37498132
19.37496236
19.37494305
19.37492345
19.37490359
19.37488352
19.37486326
19.37484286
19.37482234
19.37480173
19.37478106
19.37476036
19.37475334
19.37476002
19.37476674
19.37477354
19.37478043
19.37478744
19.3747946
19.37480194
19.37480948
19.37481725
19.37482528
19.3748336
19.37484223
19.3748512
19.37486053
19.37487024
19.37488038
19.37489095
19.37490197
19.37491348
19.37492549
19.37493802
19.37495107
19.37496468
19.37497883
19.37499355
19.37500884
19.37502468
19.37504109
19.37505803
19.37507551
19.3750935
19.37511196
19.37513086
19.37515016
19.37516981
19.37518975
19.37520991
19.37523022
19.3752506
19.37527095
19.37529119
19.37531119
19.37533086
19.37535007
19.37536871
19.37538664
19.37540375
19.3754199
19.37543496
19.37544881
19.37546132
19.37547238
19.37548188
19.37548971
19.37549578
19.37550002
19.37550235
19.37550273
19.37550111
19.37549746
19.37549178
19.37548407
19.37547436
19.37546267
19.37544906
19.37543358
19.3754163
19.37539731
19.37537668
19.37535452
19.37533092
19.37530599
19.37527982
19.37525252
19.3752242
19.37519494
19.37516486
19.37513403
19.37510255
19.3750705
19.37503795
19.37500498
19.37497166
19.37493803
19.37490416
19.37487009
19.37483588
19.37480157
19.3747672
19.37475464
19.37476394
19.3747733
19.37478275
19.37479233
19.37480209
19.37481205
19.37482226
19.37483276
19.37484357
19.37485475
19.37486632
19.37487833
19.3748908
19.37490379
19.37491731
19.37493141
19.37494612
19.37496146
19.37497748
19.37499419
19.37501161
19.37502978
19.37504871
19.37506842
19.3750889
19.37511017
19.37513222
19.37515505
19.37517864
19.37520296
19.37522799
19.37525369
19.37528
19.37530686
19.37533421
19.37536197
19.37539003
19.37541831
19.37544668
19.37547501
19.37550318
19.37553103
19.37555841
19.37558517
19.37561112
19.37563609
19.37565991
19.3756824
19.37570337
19.37572266
19.37574008
19.37575549
19.37576872
19.37577963
19.37578809
19.375794
19.37579725
19.37579777
19.37579552
19.37579044
19.37578254
19.37577181
19.37575829
19.37574201
19.37572306
19.37570151
19.37567746
19.37565101
19.3756223
19.37559144
19.37555859
19.37552388
19.37548745
19.37544945
19.37541002
19.37536929
19.37532741
19.3752845
19.37524068
19.37519607
19.37515077
19.37510488
19.37505849
19.37501169
19.37496455
19.37491714
19.37486953
19.37482177
19.37477393
19.37475592
19.37476778
19.37477971
19.37479176
19.37480398
19.37481642
19.37482913
19.37484214
19.37485553
19.37486932
19.37488357
19.37489833
19.37491364
19.37492955
19.3749461
19.37496335
19.37498133
19.37500008
19.37501965
19.37504008
19.37506139
19.37508361
19.37510679
19.37513093
19.37515606
19.37518218
19.37520931
19.37523744
19.37526655
19.37529664
19.37532767
19.3753596
19.37539238
19.37542594
19.37546022
19.37549511
19.37553052
19.37556633
19.37560241
19.37563861
19.37567476
19.37571071
19.37574625
19.3757812
19.37581534
19.37584846
19.37588034
19.37591075
19.37593945
19.37596623
19.37599085
19.3760131
19.37603277
19.37604966
19.3760636
19.37607441
19.37608195
19.37608611
19.37608679
19.37608391
19.37607744
19.37606735
19.37605367
19.37603641
19.37601565
19.37599146
19.37596395
19.37593326
19.37589951
19.37586286
19.37582349
19.37578157
19.37573727
19.37569079
19.3756423
19.37559198
19.37554002
19.37548659
19.37543184
19.37537594
19.37531902
19.37526123
19.37520269
19.37514352
19.37508381
19.37502368
19.3749632
19.37490247
19.37484155
19.37478053
19.37475716
19.3747715
19.37478594
19.37480051
19.3748153
19.37483034
19.37484571
19.37486146
19.37487765
19.37489433
19.37491157
19.37492942
19.37494794
19.37496719
19.37498722
19.37500808
19.37502983
19.37505252
19.3750762
19.3751009
19.37512668
19.37515358
19.37518161
19.37521082
19.37524122
19.37527283
19.37530566
19.37533969
19.37537493
19.37541133
19.37544888
19.37548752
19.37552719
19.37556782
19.3756093
19.37565154
19.3756944
19.37573774
19.37578142
19.37582524
19.37586901
19.37591253
19.37595557
19.37599789
19.37603923
19.37607934
19.37611795
19.37615477
19.37618954
19.37622198
19.3762518
19.37627876
19.37630259
19.37632306
19.37633994
19.37635304
19.37636219
19.37636724
19.37636807
19.37636459
19.37635676
19.37634456
19.37632799
19.37630709
19.37628195
19.37625267
19.37621936
19.37618219
19.37614133
19.37609696
19.3760493
19.37599854
19.37594491
19.37588863
19.37582993
19.37576902
19.37570612
19.37564144
19.37557518
19.37550751
19.37543862
19.37536868
19.37529783
19.37522621
19.37515396
19.37508119
19.375008
19.3749345
19.37486079
19.37478694
19.37475835
19.3747751
19.37479194
19.37480896
19.37482621
19.37484377
19.37486171
19.37488009
19.37489899
19.37491846
19.37493858
19.37495942
19.37498103
19.3750035
19.37502688
19.37505123
19.37507662
19.3751031
19.37513074
19.37515958
19.37518968
19.37522107
19.3752538
19.3752879
19.37532339
19.3753603
19.37539862
19.37543836
19.3754795
19.37552201
19.37556586
19.37561098
19.37565731
19.37570475
19.3757532
19.37580253
19.37585259
19.37590323
19.37595424
19.37600544
19.37605658
19.37610742
19.37615771
19.37620716
19.37625548
19.37630235
19.37634747
19.37639052
19.37643116
19.37646907
19.37650394
19.37653546
19.37656332
19.37658726
19.37660701
19.37662233
19.37663304
19.37663895
19.37663993
19.37663588
19.37662674
19.37661249
19.37659313
19.37656872
19.37653935
19.37650513
19.37646621
19.37642278
19.37637504
19.3763232
19.3762675
19.3762082
19.37614554
19.37607979
19.37601122
19.37594007
19.37586659
19.37579104
19.37571364
19.37563461
19.37555415
19.37547247
19.37538972
19.37530609
19.37522171
19.37513673
19.37505127
19.37496544
19.37487937
19.37479314
19.3747595
19.37477854
19.37479769
19.37481704
19.37483666
19.37485663
19.37487702
19.37489792
19.37491941
19.37494155
19.37496443
19.37498812
19.3750127
19.37503825
19.37506483
19.37509253
19.3751214
19.37515152
19.37518295
19.37521575
19.37524997
19.37528568
19.3753229
19.37536169
19.37540206
19.37544404
19.37548763
19.37553283
19.37557963
19.37562799
19.37567788
19.37572921
19.37578192
19.3758359
19.37589103
19.37594717
19.37600414
19.37606177
19.37611983
19.3761781
19.37623632
19.3762942
19.37635145
19.37640775
19.37646276
19.37651614
19.37656752
19.37661654
19.37666283
19.37670602
19.37674574
19.37678164
19.37681339
19.37684066
19.37686317
19.37688064
19.37689285
19.3768996
19.37690073
19.37689614
19.37688574
19.37686952
19.37684749
19.3768197
19.37678626
19.37674731
19.376703
19.37665356
19.3765992
19.37654019
19.37647678
19.37640927
19.37633795
19.37626311
19.37618506
19.37610408
19.37602045
19.37593447
19.37584639
19.37575645
19.3756649
19.37557196
19.37547781
19.37538265
19.37528665
19.37518997
19.37509274
19.3749951
19.37489717
19.37479908
19.37476059
19.3747818
19.37480314
19.37482471
19.37484657
19.37486882
19.37489155
19.37491484
19.37493879
19.37496346
19.37498896
19.37501536
19.37504276
19.37507123
19.37510086
19.37513172
19.3751639
19.37519747
19.3752325
19.37526906
19.37530721
19.375347
19.3753885
19.37543173
19.37547674
19.37552353
19.37557213
19.37562252
19.3756747
19.37572862
19.37578424
19.37584149
19.37590027
19.37596046
19.37602195
19.37608456
19.37614811
19.37621238
19.37627716
19.37634216
19.37640711
19.37647169
19.37653558
19.3765984
19.3766598
19.37671937
19.37677672
19.37683145
19.37688312
19.37693134
19.37697569
19.37701578
19.37705124
19.3770817
19.37710684
19.37712636
19.37714001
19.37714756
19.37714885
19.37714373
19.37713215
19.37711406
19.37708948
19.37705848
19.37702117
19.3769777
19.37692826
19.37687309
19.37681244
19.37674659
19.37667584
19.37660052
19.37652094
19.37643745
19.37635037
19.37626003
19.37616675
19.37607084
19.3759726
19.37587229
19.37577019
19.37566653
19.37556154
19.37545543
19.37534838
19.37524057
19.37513216
19.37502329
19.3749141
19.37480472
19.37476161
19.37478487
19.37480827
19.37483191
19.37485589
19.37488029
19.37490521
19.37493075
19.374957
19.37498406
19.37501202
19.37504097
19.37507101
19.37510223
19.37513472
19.37516857
19.37520386
19.37524067
19.37527909
19.37531918
19.37536102
19.37540467
19.37545018
19.3754976
19.37554696
19.37559829
19.3756516
19.37570688
19.37576412
19.37582328
19.3758843
19.37594711
19.3760116
19.37607766
19.37614513
19.37621384
19.37628359
19.37635414
19.37642524
19.37649659
19.3765679
19.3766388
19.37670894
19.37677793
19.37684535
19.37691078
19.37697377
19.37703388
19.37709064
19.37714361
19.37719234
19.3772364
19.37727536
19.37730884
19.37733648
19.37735794
19.37737296
19.37738127
19.37738271
19.37737711
19.37736441
19.37734455
19.37731757
19.37728354
19.37724257
19.37719485
19.37714057
19.37707999
19.37701339
19.37694109
19.37686341
19.37678072
19.37669336
19.3766017
19.37650611
19.37640695
19.37630457
19.3761993
19.37609148
19.3759814
19.37586935
19.3757556
19.3756404
19.37552396
19.37540651
19.37528822
19.37516927
19.37504983
19.37493003
19.37481003
19.37476256
19.37478772
19.37481304
19.37483862
19.37486455
19.37489095
19.37491791
19.37494554
19.37497394
19.37500322
19.37503347
19.37506479
19.37509729
19.37513107
19.37516622
19.37520284
19.37524102
19.37528086
19.37532242
19.37536581
19.37541108
19.37545831
19.37550756
19.37555888
19.3756123
19.37566785
19.37572555
19.37578538
19.37584734
19.37591137
19.37597743
19.37604542
19.37611524
19.37618676
19.37625981
19.37633421
19.37640973
19.37648613
19.37656313
19.37664042
19.37671765
19.37679446
19.37687045
19.37694519
19.37701824
19.37708914
19.3771574
19.37722254
19.37728407
19.37734149
19.37739431
19.37744207
19.37748432
19.37752063
19.3775506
19.37757389
19.37759019
19.37759922
19.3776008
19.37759476
19.37758101
19.37755951
19.3775303
19.37749343
19.37744905
19.37739735
19.37733854
19.37727292
19.37720077
19.37712244
19.3770383
19.37694872
19.3768541
19.37675482
19.37665129
19.37654389
19.37643302
19.37631902
19.37620227
19.37608307
19.37596175
19.3758386
19.37571387
19.37558782
19.37546066
19.37533261
19.37520385
19.37507455
19.37494488
19.37481498
19.37476343
19.37479034
19.37481742
19.37484477
19.37487251
19.37490074
19.37492958
19.37495913
19.37498951
19.37502082
19.37505317
19.37508667
19.37512144
19.37515756
19.37519516
19.37523433
19.37527517
19.37531778
19.37536224
19.37540865
19.37545708
19.37550761
19.37556029
19.37561519
19.37567234
19.37573177
19.3757935
19.37585753
19.37592382
19.37599234
19.37606303
19.37613579
19.37621051
19.37628706
19.37636525
19.37644489
19.37652574
19.37660753
19.37668997
19.37677272
19.37685542
19.37693767
19.37701905
19.3770991
19.37717734
19.37725329
19.37732642
19.37739621
19.37746213
19.37752366
19.37758027
19.37763146
19.37767674
19.37771566
19.3777478
19.37777278
19.37779026
19.37779997
19.37780168
19.37779524
19.37778053
19.37775752
19.37772624
19.37768676
19.37763924
19.37758386
19.37752089
19.3774506
19.37737334
19.37728946
19.37719935
19.37710342
19.3770021
19.3768958
19.37678495
19.37666997
19.37655126
19.37642923
19.37630424
19.37617665
19.3760468
19.37591498
19.37578149
19.37564658
19.3755105
19.37537346
19.37523567
19.3750973
19.37495854
19.37481954
19.37476422
19.37479272
19.37482139
19.37485035
19.37487972
19.37490961
19.37494014
19.37497143
19.3750036
19.37503675
19.375071
19.37510648
19.37514329
19.37518155
19.37522136
19.37526283
19.37530608
19.3753512
19.37539829
19.37544743
19.37549872
19.37555223
19.37560803
19.37566618
19.37572671
19.37578966
19.37585505
19.37592286
19.37599309
19.37606568
19.37614057
19.37621765
19.37629683
19.37637793
19.37646078
19.37654518
19.37663086
19.37671754
19.37680492
19.37689264
19.3769803
19.3770675
19.37715377
19.37723865
19.37732162
19.37740215
19.37747971
19.37755373
19.37762365
19.37768892
19.37774898
19.37780329
19.37785134
19.37789264
19.37792675
19.37795327
19.37797184
19.37798216
19.377984
19.37797719
19.37796161
19.37793723
19.37790408
19.37786223
19.37781185
19.37775314
19.37768637
19.37761185
19.37752994
19.37744101
19.37734548
19.37724379
19.37713638
19.3770237
19.3769062
19.37678433
19.37665852
19.37652919
19.37639673
19.37626152
19.37612392
19.37598425
19.3758428
19.37569987
19.37555569
19.3754105
19.37526452
19.37511793
19.37497093
19.37482367
19.37476492
19.37479482
19.37482491
19.3748553
19.37488612
19.37491749
19.37494953
19.37498237
19.37501612
19.37505091
19.37508686
19.37512409
19.37516272
19.37520287
19.37524465
19.37528818
19.37533357
19.37538092
19.37543034
19.37548192
19.37553575
19.37559192
19.37565049
19.37571152
19.37577506
19.37584114
19.37590979
19.37598098
19.37605471
19.37613092
19.37620954
19.37629049
19.37637362
19.37645879
19.3765458
19.37663442
19.37672441
19.37681546
19.37690724
19.37699938
19.37709148
19.37718309
19.37727373
19.37736292
19.3774501
19.37753473
19.37761624
19.37769404
19.37776754
19.37783615
19.37789929
19.37795639
19.37800691
19.37805035
19.37808623
19.37811413
19.37813367
19.37814455
19.37814651
19.37813937
19.37812302
19.37809742
19.37806259
19.37801862
19.37796569
19.37790401
19.37783386
19.37775556
19.37766949
19.37757606
19.3774757
19.37736886
19.37725602
19.37713765
19.37701422
19.37688621
19.37675406
19.37661822
19.37647911
19.37633712
19.37619261
19.37604594
19.37589741
19.37574732
19.37559593
19.37544349
19.37529021
19.3751363
19.37498195
19.37482735
19.37476553
19.37479666
19.37482797
19.37485961
19.37489169
19.37492434
19.37495769
19.37499187
19.375027
19.37506322
19.37510064
19.37513939
19.3751796
19.3752214
19.37526489
19.3753102
19.37535745
19.37540675
19.3754582
19.3755119
19.37556794
19.37562642
19.37568739
19.37575094
19.37581709
19.3758859
19.37595737
19.37603151
19.37610828
19.37618764
19.37626952
19.37635382
19.3764404
19.3765291
19.37661973
19.37671205
19.37680579
19.37690064
19.37699626
19.37709225
19.37718821
19.37728367
19.37737812
19.37747106
19.37756192
19.37765013
19.37773509
19.37781619
19.37789281
19.37796434
19.37803017
19.37808971
19.37814239
19.3781877
19.37822512
19.37825422
19.37827462
19.37828598
19.37828805
19.37828063
19.37826361
19.37823694
19.37820065
19.37815485
19.37809969
19.37803541
19.37796231
19.37788072
19.37779103
19.37769367
19.37758909
19.37747777
19.3773602
19.37723687
19.37710827
19.37697491
19.37683724
19.37669574
19.37655082
19.37640292
19.3762524
19.37609963
19.37594494
19.37578862
19.37563095
19.37547219
19.37531257
19.37515229
19.37499155
19.37483055
19.37476605
19.3747982
19.37483056
19.37486324
19.37489638
19.37493012
19.37496457
19.37499988
19.37503618
19.37507359
19.37511226
19.37515229
19.37519384
19.37523702
19.37528196
19.37532877
19.37537759
19.37542853
19.37548168
19.37553717
19.37559508
19.3756555
19.37571851
19.37578417
19.37585254
19.37592364
19.3759975
19.37607412
19.37615346
19.37623548
19.37632011
19.37640724
19.37649673
19.37658842
19.37668211
19.37677754
19.37687445
19.37697251
19.37707137
19.37717063
19.37726985
19.37736856
19.37746624
19.37756235
19.37765633
19.37774756
19.37783544
19.37791933
19.37799859
19.37807259
19.3781407
19.3782023
19.37825682
19.3783037
19.37834244
19.37837256
19.37839368
19.37840546
19.37840762
19.37839996
19.37838238
19.37835481
19.37831729
19.37826993
19.37821289
19.37814642
19.37807082
19.37798645
19.3778937
19.37779302
19.37768487
19.37756976
19.37744818
19.37732066
19.3771877
19.37704981
19.37690748
19.37676118
19.37661137
19.37645847
19.37630288
19.37614496
19.37598506
19.37582348
19.37566052
19.37549643
19.37533144
19.37516578
19.37499965
19.37483325
19.37476646
19.37479945
19.37483264
19.37486617
19.37490017
19.37493478
19.37497013
19.37500635
19.37504359
19.37508197
19.37512164
19.37516271
19.37520534
19.37524963
19.37529574
19.37534377
19.37539386
19.37544611
19.37550065
19.37555758
19.375617
19.375679
19.37574365
19.37581102
19.37588117
19.37595413
19.37602992
19.37610854
19.37618996
19.37627413
19.37636098
19.3764504
19.37654225
19.37663636
19.37673251
19.37683047
19.37692994
19.3770306
19.37713208
19.37723398
19.37733584
19.37743718
19.37753747
19.37763616
19.37773265
19.37782634
19.37791658
19.37800273
19.37808414
19.37816014
19.37823009
19.37829337
19.37834938
19.37839754
19.37843734
19.3784683
19.37849
19.37850211
19.37850435
19.37849651
19.37847846
19.37845017
19.37841165
19.37836303
19.37830447
19.37823622
19.3781586
19.37807197
19.37797674
19.37787337
19.37776234
19.37764416
19.37751935
19.37738843
19.37725194
19.37711038
19.37696428
19.37681411
19.37666034
19.3765034
19.37634369
19.37618161
19.3760175
19.37585167
19.37568442
19.37551602
19.3753467
19.37517669
19.3750062
19.37483543
19.37476677
19.37480039
19.37483422
19.37486839
19.37490303
19.3749383
19.37497432
19.37501124
19.37504919
19.3750883
19.37512872
19.37517059
19.37521402
19.37525917
19.37530615
19.3753551
19.37540615
19.3754594
19.37551499
19.37557301
19.37563356
19.37569675
19.37576264
19.37583131
19.37590281
19.37597717
19.37605442
19.37613455
19.37621755
19.37630334
19.37639187
19.37648302
19.37657665
19.37667259
19.37677061
19.37687047
19.37697189
19.37707451
19.37717798
19.37728188
19.37738574
19.37748907
19.37759134
19.37769197
19.37779038
19.37788592
19.37797795
19.37806581
19.37814884
19.37822636
19.37829771
19.37836226
19.3784194
19.37846853
19.37850913
19.37854072
19.37856287
19.37857524
19.37857754
19.37856955
19.37855116
19.37852232
19.37848305
19.37843347
19.37837375
19.37830416
19.37822501
19.37813668
19.37803957
19.37793417
19.37782095
19.37770044
19.37757318
19.37743969
19.37730052
19.3771562
19.37700724
19.37685414
19.37669737
19.37653737
19.37637456
19.37620933
19.37604203
19.37587299
19.3757025
19.37553083
19.37535824
19.37518494
19.37501116
19.37483708
19.37476699
19.37480102
19.37483527
19.37486987
19.37490495
19.37494066
19.37497714
19.37501452
19.37505294
19.37509255
19.37513347
19.37517586
19.37521984
19.37526555
19.37531313
19.3753627
19.37541438
19.37546831
19.37552459
19.37558334
19.37564466
19.37570864
19.37577537
19.3758449
19.37591731
19.37599261
19.37607084
19.37615199
19.37623604
19.37632293
19.37641258
19.37650489
19.37659972
19.37669688
19.37679615
19.3768973
19.37700001
19.37710396
19.37720876
19.37731399
19.37741919
19.37752386
19.37762746
19.3777294
19.37782908
19.37792587
19.37801911
19.37810812
19.37819224
19.37827077
19.37834307
19.37840847
19.37846636
19.37851615
19.37855729
19.3785893
19.37861176
19.3786243
19.37862663
19.37861855
19.37859993
19.37857072
19.37853094
19.37848072
19.37842023
19.37834974
19.37826957
19.37818008
19.37808172
19.37797495
19.37786026
19.3777382
19.37760929
19.37747408
19.37733311
19.37718693
19.37703606
19.37688099
19.3767222
19.37656016
19.37639526
19.37622792
19.37605848
19.37588728
19.37571462
19.37554077
19.37536597
19.37519047
19.37501448
19.37483819
19.37476709
19.37480134
19.3748358
19.37487061
19.37490591
19.37494185
19.37497855
19.37501616
19.37505482
19.37509467
19.37513586
19.37517851
19.37522276
19.37526876
19.37531663
19.37536651
19.37541851
19.37547278
19.37552941
19.37558853
19.37565023
19.37571461
19.37578175
19.37585172
19.37592458
19.37600036
19.37607908
19.37616074
19.37624531
19.37633275
19.37642297
19.37651586
19.37661129
19.37670906
19.37680897
19.37691075
19.37701412
19.37711873
19.3772242
19.3773301
19.37743598
19.37754132
19.37764558
19.37774818
19.37784851
19.37794592
19.37803976
19.37812935
19.37821401
19.37829306
19.37836583
19.37843166
19.37848993
19.37854004
19.37858146
19.37861368
19.37863629
19.37864892
19.37865127
19.37864314
19.37862441
19.37859501
19.37855498
19.37850443
19.37844356
19.37837262
19.37829192
19.37820186
19.37810287
19.37799541
19.37787999
19.37775714
19.37762741
19.37749133
19.37734947
19.37720235
19.37705052
19.37689446
19.37673467
19.37657159
19.37640565
19.37623725
19.37606674
19.37589446
19.3757207
19.37554575
19.37536986
19.37519325
19.37501615
19.37483875
19.37476709
19.37480134
19.3748358
19.37487061
19.37490591
19.37494185
19.37497855
19.37501616
19.37505482
19.37509467
19.37513586
19.37517851
19.37522276
19.37526876
19.37531663
19.37536651
19.37541851
19.37547278
19.37552941
19.37558853
19.37565023
19.37571461
19.37578175
19.37585173
19.37592458
19.37600036
19.37607908
19.37616074
19.37624531
19.37633275
19.37642297
19.37651586
19.37661129
19.37670906
19.37680897
19.37691075
19.37701412
19.37711873
19.3772242
19.3773301
19.37743598
19.37754132
19.37764558
19.37774818
19.37784851
19.37794592
19.37803976
19.37812935
19.37821401
19.37829306
19.37836583
19.37843166
19.37848993
19.37854004
19.37858146
19.37861368
19.37863629
19.37864891
19.37865127
19.37864314
19.3786244
19.378595
19.37855498
19.37850443
19.37844356
19.37837262
19.37829192
19.37820186
19.37810287
19.37799541
19.37787999
19.37775714
19.37762741
19.37749133
19.37734947
19.37720235
19.37705052
19.37689446
19.37673467
19.37657159
19.37640565
19.37623725
19.37606674
19.37589446
19.3757207
19.37554575
19.37536986
19.37519325
19.37501615
19.37483875
19.37476699
19.37480102
19.37483527
19.37486987
19.37490495
19.37494066
19.37497714
19.37501452
19.37505294
19.37509255
19.37513348
19.37517586
19.37521984
19.37526556
19.37531313
19.3753627
19.37541438
19.37546831
19.37552459
19.37558335
19.37564467
19.37570865
19.37577537
19.37584491
19.37591731
19.37599261
19.37607084
19.37615199
19.37623604
19.37632293
19.37641258
19.37650489
19.37659972
19.37669688
19.37679615
19.3768973
19.37700001
19.37710396
19.37720876
19.37731399
19.37741919
19.37752386
19.37762746
19.3777294
19.37782908
19.37792587
19.3780191
19.37810812
19.37819223
19.37827077
19.37834307
19.37840847
19.37846635
19.37851614
19.37855728
19.3785893
19.37861175
19.37862429
19.37862662
19.37861854
19.37859992
19.37857071
19.37853094
19.37848072
19.37842023
19.37834974
19.37826956
19.37818008
19.37808172
19.37797495
19.37786026
19.3777382
19.37760929
19.37747408
19.37733311
19.37718693
19.37703606
19.37688099
19.37672221
19.37656016
19.37639527
19.37622792
19.37605848
19.37588728
19.37571462
19.37554077
19.37536597
19.37519047
19.37501448
19.37483819
19.37476677
19.37480039
19.37483422
19.37486839
19.37490303
19.3749383
19.37497432
19.37501124
19.37504919
19.3750883
19.37512873
19.37517059
19.37521402
19.37525917
19.37530615
19.3753551
19.37540615
19.3754594
19.37551499
19.37557301
19.37563357
19.37569675
19.37576264
19.37583131
19.37590281
19.37597717
19.37605442
19.37613456
19.37621755
19.37630335
19.37639188
19.37648303
19.37657666
19.37667259
19.37677061
19.37687048
19.37697189
19.37707452
19.37717798
19.37728188
19.37738574
19.37748907
19.37759134
19.37769197
19.37779037
19.37788591
19.37797795
19.37806581
19.37814883
19.37822635
19.37829771
19.37836226
19.37841938
19.37846852
19.37850912
19.37854071
19.37856286
19.37857523
19.37857752
19.37856954
19.37855115
19.37852231
19.37848304
19.37843346
19.37837375
19.37830416
19.37822501
19.37813667
19.37803957
19.37793417
19.37782095
19.37770045
19.37757318
19.37743969
19.37730053
19.37715621
19.37700725
19.37685414
19.37669737
19.37653737
19.37637457
19.37620933
19.37604203
19.37587299
19.3757025
19.37553083
19.37535824
19.37518494
19.37501116
19.37483708
19.37476646
19.37479945
19.37483264
19.37486617
19.37490017
19.37493478
19.37497013
19.37500635
19.37504359
19.37508197
19.37512164
19.37516272
19.37520534
19.37524964
19.37529574
19.37534377
19.37539386
19.37544612
19.37550066
19.37555759
19.375617
19.375679
19.37574365
19.37581102
19.37588117
19.37595413
19.37602992
19.37610854
19.37618996
19.37627414
19.37636099
19.3764504
19.37654225
19.37663636
19.37673251
19.37683047
19.37692994
19.3770306
19.37713208
19.37723398
19.37733584
19.37743718
19.37753747
19.37763616
19.37773265
19.37782634
19.37791658
19.37800273
19.37808413
19.37816013
19.37823008
19.37829336
19.37834936
19.37839753
19.37843732
19.37846828
19.37848999
19.3785021
19.37850433
19.37849649
19.37847845
19.37845015
19.37841164
19.37836302
19.37830446
19.37823622
19.3781586
19.37807197
19.37797674
19.37787337
19.37776234
19.37764416
19.37751935
19.37738843
19.37725194
19.37711039
19.37696429
19.37681411
19.37666034
19.3765034
19.3763437
19.37618162
19.3760175
19.37585167
19.37568442
19.37551602
19.3753467
19.37517669
19.37500621
19.37483543
19.37476605
19.3747982
19.37483056
19.37486324
19.37489638
19.37493012
19.37496457
19.37499988
19.37503618
19.3750736
19.37511226
19.3751523
19.37519384
19.37523702
19.37528196
19.37532878
19.37537759
19.37542853
19.37548169
19.37553717
19.37559508
19.37565551
19.37571851
19.37578418
19.37585254
19.37592365
19.37599751
19.37607412
19.37615346
19.37623549
19.37632011
19.37640724
19.37649674
19.37658843
19.37668211
19.37677754
19.37687445
19.37697251
19.37707137
19.37717063
19.37726985
19.37736856
19.37746624
19.37756235
19.37765632
19.37774756
19.37783543
19.37791932
19.37799858
19.37807258
19.37814068
19.37820229
19.37825681
19.37830368
19.37834242
19.37837254
19.37839366
19.37840544
19.3784076
19.37839994
19.37838236
19.37835479
19.37831728
19.37826991
19.37821288
19.37814641
19.37807082
19.37798644
19.3778937
19.37779302
19.37768487
19.37756976
19.37744819
19.37732066
19.3771877
19.37704981
19.37690749
19.37676119
19.37661138
19.37645848
19.37630288
19.37614496
19.37598506
19.37582349
19.37566052
19.37549643
19.37533144
19.37516578
19.37499966
19.37483325
19.37476553
19.37479666
19.37482797
19.37485961
19.37489169
19.37492434
19.37495769
19.37499187
19.37502701
19.37506322
19.37510064
19.3751394
19.37517961
19.3752214
19.37526489
19.37531021
19.37535746
19.37540675
19.3754582
19.3755119
19.37556794
19.37562642
19.3756874
19.37575094
19.3758171
19.3758859
19.37595738
19.37603151
19.37610828
19.37618764
19.37626953
19.37635382
19.3764404
19.37652911
19.37661973
19.37671205
19.37680579
19.37690064
19.37699626
19.37709226
19.37718821
19.37728366
19.37737812
19.37747106
19.37756192
19.37765013
19.37773508
19.37781618
19.3778928
19.37796432
19.37803015
19.37808969
19.37814238
19.37818768
19.3782251
19.3782542
19.3782746
19.37828596
19.37828802
19.37828061
19.37826359
19.37823692
19.37820064
19.37815483
19.37809968
19.37803541
19.3779623
19.37788072
19.37779103
19.37769367
19.3775891
19.37747778
19.3773602
19.37723687
19.37710828
19.37697491
19.37683725
19.37669574
19.37655083
19.37640292
19.37625241
19.37609964
19.37594494
19.37578862
19.37563096
19.3754722
19.37531257
19.37515229
19.37499155
19.37483055
19.37476492
19.37479483
19.37482491
19.3748553
19.37488612
19.37491749
19.37494953
19.37498237
19.37501612
19.37505091
19.37508686
19.37512409
19.37516272
19.37520287
19.37524465
19.37528818
19.37533357
19.37538092
19.37543034
19.37548192
19.37553576
19.37559192
19.37565049
19.37571153
19.37577507
19.37584115
19.37590979
19.37598099
19.37605471
19.37613092
19.37620955
19.37629049
19.37637362
19.37645879
19.3765458
19.37663443
19.37672442
19.37681546
19.37690724
19.37699938
19.37709148
19.37718309
19.37727373
19.37736291
19.3774501
19.37753473
19.37761623
19.37769403
19.37776753
19.37783613
19.37789927
19.37795637
19.37800689
19.37805033
19.37808621
19.3781141
19.37813365
19.37814452
19.37814648
19.37813935
19.378123
19.3780974
19.37806257
19.37801861
19.37796568
19.377904
19.37783385
19.37775556
19.37766949
19.37757606
19.3774757
19.37736886
19.37725602
19.37713765
19.37701423
19.37688622
19.37675407
19.37661823
19.37647912
19.37633712
19.37619262
19.37604594
19.37589741
19.37574732
19.37559594
19.37544349
19.37529021
19.3751363
19.37498196
19.37482735
19.37476422
19.37479272
19.37482139
19.37485035
19.37487972
19.37490961
19.37494014
19.37497143
19.3750036
19.37503675
19.37507101
19.37510648
19.37514329
19.37518155
19.37522136
19.37526284