/*--------------------------------*- C++ -*----------------------------------*\
| =========                 |                                                 |
| \\      /  F ield         | foam-extend: Open Source CFD                    |
|  \\    /   O peration     | Version:     4.1                                |
|   \\  /    A nd           | Web:         http://www.foam-extend.org         |
|    \\/     M anipulation  |                                                 |
\*---------------------------------------------------------------------------*/
FoamFile
{
    version     2.0;
    format      ascii;
    class       surfaceTensorField;
    location    "0";
    object      refLambda;
}
// * * * * * * * * * * * * * * * * * * * * * * * * * * * * * * * * * * * * * //

dimensions      [0 0 0 0 0 0 0];

internalField   nonuniform List<tensor> 
693
(
(1 0 0 0 1 0 0 0 1)
(1 0 0 0 1 0 0 0 1)
(1 0 0 0 1 0 0 0 1)
(1 0 0 0 1 0 0 0 1)
(1 0 0 0 1 0 0 0 1)
(1 0 0 0 1 0 0 0 1)
(1 0 0 0 1 0 0 0 1)
(1 0 0 0 1 0 0 0 1)
(1 0 0 0 1 0 0 0 1)
(1 0 0 0 1 0 0 0 1)
(1 0 0 0 1 0 0 0 1)
(1 0 0 0 1 0 0 0 1)
(1 0 0 0 1 0 0 0 1)
(1 0 0 0 1 0 0 0 1)
(1 0 0 0 1 0 0 0 1)
(1 0 0 0 1 0 0 0 1)
(1 0 0 0 1 0 0 0 1)
(1 0 0 0 1 0 0 0 1)
(1 0 0 0 1 0 0 0 1)
(1 0 0 0 1 0 0 0 1)
(1 0 0 0 1 0 0 0 1)
(1 0 0 0 1 0 0 0 1)
(1 0 0 0 1 0 0 0 1)
(1 0 0 0 1 0 0 0 1)
(1 0 0 0 1 0 0 0 1)
(1 0 0 0 1 0 0 0 1)
(1 0 0 0 1 0 0 0 1)
(1 0 0 0 1 0 0 0 1)
(1 0 0 0 1 0 0 0 1)
(1 0 0 0 1 0 0 0 1)
(1 0 0 0 1 0 0 0 1)
(1 0 0 0 1 0 0 0 1)
(1 0 0 0 1 0 0 0 1)
(1 0 0 0 1 0 0 0 1)
(1 0 0 0 1 0 0 0 1)
(1 0 0 0 1 0 0 0 1)
(1 0 0 0 1 0 0 0 1)
(1 0 0 0 1 0 0 0 1)
(1 0 0 0 1 0 0 0 1)
(1 0 0 0 1 0 0 0 1)
(1 0 0 0 1 0 0 0 1)
(1 0 0 0 1 0 0 0 1)
(1 0 0 0 1 0 0 0 1)
(1 0 0 0 1 0 0 0 1)
(1 0 0 0 1 0 0 0 1)
(1 0 0 0 1 0 0 0 1)
(1 0 0 0 1 0 0 0 1)
(1 0 0 0 1 0 0 0 1)
(1 0 0 0 1 0 0 0 1)
(1 0 0 0 1 0 0 0 1)
(1 0 0 0 1 0 0 0 1)
(1 0 0 0 1 0 0 0 1)
(1 0 0 0 1 0 0 0 1)
(1 0 0 0 1 0 0 0 1)
(1 0 0 0 1 0 0 0 1)
(1 0 0 0 1 0 0 0 1)
(1 0 0 0 1 0 0 0 1)
(1 0 0 0 1 0 0 0 1)
(1 0 0 0 1 0 0 0 1)
(1 0 0 0 1 0 0 0 1)
(1 0 0 0 1 0 0 0 1)
(1 0 0 0 1 0 0 0 1)
(1 0 0 0 1 0 0 0 1)
(1 0 0 0 1 0 0 0 1)
(1 0 0 0 1 0 0 0 1)
(1 0 0 0 1 0 0 0 1)
(1 0 0 0 1 0 0 0 1)
(1 0 0 0 1 0 0 0 1)
(1 0 0 0 1 0 0 0 1)
(1 0 0 0 1 0 0 0 1)
(1 0 0 0 1 0 0 0 1)
(1 0 0 0 1 0 0 0 1)
(1 0 0 0 1 0 0 0 1)
(1 0 0 0 1 0 0 0 1)
(1 0 0 0 1 0 0 0 1)
(1 0 0 0 1 0 0 0 1)
(1 0 0 0 1 0 0 0 1)
(1 0 0 0 1 0 0 0 1)
(1 0 0 0 1 0 0 0 1)
(1 0 0 0 1 0 0 0 1)
(1 0 0 0 1 0 0 0 1)
(1 0 0 0 1 0 0 0 1)
(1 0 0 0 1 0 0 0 1)
(1 0 0 0 1 0 0 0 1)
(1 0 0 0 1 0 0 0 1)
(1 0 0 0 1 0 0 0 1)
(1 0 0 0 1 0 0 0 1)
(1 0 0 0 1 0 0 0 1)
(1 0 0 0 1 0 0 0 1)
(1 0 0 0 1 0 0 0 1)
(1 0 0 0 1 0 0 0 1)
(1 0 0 0 1 0 0 0 1)
(1 0 0 0 1 0 0 0 1)
(1 0 0 0 1 0 0 0 1)
(1 0 0 0 1 0 0 0 1)
(1 0 0 0 1 0 0 0 1)
(1 0 0 0 1 0 0 0 1)
(1 0 0 0 1 0 0 0 1)
(1 0 0 0 1 0 0 0 1)
(0.994934 -2.79029e-18 -0.100531 -0.025001 0.968583 -0.24743 0.0973726 0.24869 0.963676)
(0.994934 1.32315e-18 -0.100531 -0.0484312 0.876307 -0.479313 0.088096 0.481754 0.871867)
(0.994934 -1.93881e-17 -0.100531 -0.0688182 0.728969 -0.681079 0.0732839 0.684547 0.725276)
(0.994934 -2.49687e-17 -0.100531 -0.0848811 0.535827 -0.840051 0.0538672 0.844328 0.533112)
(0.994934 -5.58059e-18 -0.100531 -0.0956106 0.309017 -0.946238 0.0310658 0.951057 0.307451)
(0.994934 1.31099e-17 -0.100531 -0.100333 0.0627905 -0.992971 0.00631239 0.998027 0.0624724)
(0.994934 -1.10172e-17 -0.100531 -0.0987503 -0.187381 -0.977311 -0.0188376 0.982287 -0.186432)
(0.994934 5.58059e-18 -0.100531 -0.0909631 -0.425779 -0.900243 -0.042804 0.904827 -0.423622)
(0.994934 -2.6463e-18 -0.100531 -0.0774604 -0.637424 -0.76661 -0.0640808 0.770513 -0.634195)
(0.994934 -6.90374e-18 -0.100531 -0.0590906 -0.809017 -0.584807 -0.0813313 0.587785 -0.804918)
(0.994934 -1.32315e-18 -0.100531 -0.0370079 -0.929776 -0.36626 -0.0934713 0.368125 -0.925066)
(0.994934 0 -0.100531 -0.0125999 -0.992115 -0.124698 -0.0997382 0.125333 -0.987089)
(0.994934 1.72594e-18 -0.100531 0.0125999 -0.992115 0.124698 -0.0997382 -0.125333 -0.987089)
(0.994934 -1.11612e-17 -0.100531 0.0370079 -0.929776 0.36626 -0.0934713 -0.368125 -0.925066)
(0.994934 6.90374e-18 -0.100531 0.0590906 -0.809017 0.584807 -0.0813313 -0.587785 -0.804918)
(0.994934 -1.93881e-17 -0.100531 0.0774604 -0.637424 0.76661 -0.0640808 -0.770513 -0.634195)
(0.994934 1.38075e-17 -0.100531 0.0909631 -0.425779 0.900243 -0.042804 -0.904827 -0.423622)
(0.994934 -5.58059e-18 -0.100531 0.0987503 -0.187381 0.977311 -0.0188376 -0.982287 -0.186432)
(0.994934 6.97574e-19 -0.100531 0.100333 0.0627905 0.992971 0.00631239 -0.998027 0.0624724)
(0.994934 -2.20344e-17 -0.100531 0.0956106 0.309017 0.946238 0.0310658 -0.951057 0.307451)
(0.994934 1.93881e-17 -0.100531 0.0848811 0.535827 0.840051 0.0538672 -0.844328 0.533112)
(0.994934 0 -0.100531 0.0688182 0.728969 0.681079 0.0732839 -0.684547 0.725276)
(0.994934 -2.6463e-18 -0.100531 0.0484312 0.876307 0.479313 0.088096 -0.481754 0.871867)
(0.994934 -3.45187e-18 -0.100531 0.025001 0.968583 0.24743 0.0973726 -0.24869 0.963676)
(0.994934 0 -0.100531 2.4623e-17 1 2.43689e-16 0.100531 -2.44929e-16 0.994934)
(0.994934 -2.79029e-18 -0.100531 -0.025001 0.968583 -0.24743 0.0973726 0.24869 0.963676)
(0.994934 2.6463e-18 -0.100531 -0.0484312 0.876307 -0.479313 0.088096 0.481754 0.871867)
(0.994934 -1.38075e-17 -0.100531 -0.0688182 0.728969 -0.681079 0.0732839 0.684547 0.725276)
(0.994934 -1.93881e-17 -0.100531 -0.0848811 0.535827 -0.840051 0.0538672 0.844328 0.533112)
(0.994934 1.38075e-17 -0.100531 -0.0956106 0.309017 -0.946238 0.0310658 0.951057 0.307451)
(0.994934 0 -0.100531 -0.100333 0.0627905 -0.992971 0.00631239 0.998027 0.0624724)
(0.994934 5.58059e-18 -0.100531 -0.0987503 -0.187381 -0.977311 -0.0188376 0.982287 -0.186432)
(0.994934 5.58059e-18 -0.100531 -0.0909631 -0.425779 -0.900243 -0.042804 0.904827 -0.423622)
(0.994934 -2.6463e-18 -0.100531 -0.0774604 -0.637424 -0.76661 -0.0640808 0.770513 -0.634195)
(0.994934 5.58059e-18 -0.100531 -0.0590906 -0.809017 -0.584807 -0.0813313 0.587785 -0.804918)
(0.994934 -1.32315e-18 -0.100531 -0.0370079 -0.929776 -0.36626 -0.0934713 0.368125 -0.925066)
(0.994934 3.12108e-18 -0.100531 -0.0125999 -0.992115 -0.124698 -0.0997382 0.125333 -0.987089)
(0.994934 -1.39515e-18 -0.100531 0.0125999 -0.992115 0.124698 -0.0997382 -0.125333 -0.987089)
(0.994934 -4.25744e-18 -0.100531 0.0370079 -0.929776 0.36626 -0.0934713 -0.368125 -0.925066)
(0.994934 -5.58059e-18 -0.100531 0.0590906 -0.809017 0.584807 -0.0813313 -0.587785 -0.804918)
(0.994934 -2.49687e-17 -0.100531 0.0774604 -0.637424 0.76661 -0.0640808 -0.770513 -0.634195)
(0.994934 0 -0.100531 0.0909631 -0.425779 0.900243 -0.042804 -0.904827 -0.423622)
(0.994934 1.38075e-17 -0.100531 0.0987503 -0.187381 0.977311 -0.0188376 -0.982287 -0.186432)
(0.994934 1.45051e-17 -0.100531 0.100333 0.0627905 0.992971 0.00631239 -0.998027 0.0624724)
(0.994934 5.58059e-18 -0.100531 0.0956106 0.309017 0.946238 0.0310658 -0.951057 0.307451)
(0.994934 5.58059e-18 -0.100531 0.0848811 0.535827 0.840051 0.0538672 -0.844328 0.533112)
(0.994934 0 -0.100531 0.0688182 0.728969 0.681079 0.0732839 -0.684547 0.725276)
(0.994934 0 -0.100531 0.0484312 0.876307 0.479313 0.088096 -0.481754 0.871867)
(0.994934 0 -0.100531 0.025001 0.968583 0.24743 0.0973726 -0.24869 0.963676)
(0.994934 0 -0.100531 5.84983e-16 1 5.78945e-15 0.100531 -5.81893e-15 0.994934)
(0.994934 -3.45187e-18 -0.100531 -0.025001 0.968583 -0.24743 0.0973726 0.24869 0.963676)
(0.994934 -1.24843e-17 -0.100531 -0.0484312 0.876307 -0.479313 0.088096 0.481754 0.871867)
(0.994934 -1.93881e-17 -0.100531 -0.0688182 0.728969 -0.681079 0.0732839 0.684547 0.725276)
(0.994934 -2.49687e-17 -0.100531 -0.0848811 0.535827 -0.840051 0.0538672 0.844328 0.533112)
(0.994934 -1.38075e-17 -0.100531 -0.0956106 0.309017 -0.946238 0.0310658 0.951057 0.307451)
(0.994934 -6.97574e-19 -0.100531 -0.100333 0.0627905 -0.992971 0.00631239 0.998027 0.0624724)
(0.994934 1.38075e-17 -0.100531 -0.0987503 -0.187381 -0.977311 -0.0188376 0.982287 -0.186432)
(0.994934 5.58059e-18 -0.100531 -0.0909631 -0.425779 -0.900243 -0.042804 0.904827 -0.423622)
(0.994934 -2.6463e-18 -0.100531 -0.0774604 -0.637424 -0.76661 -0.0640808 0.770513 -0.634195)
(0.994934 0 -0.100531 -0.0590906 -0.809017 -0.584807 -0.0813313 0.587785 -0.804918)
(0.994934 5.58059e-18 -0.100531 -0.0370079 -0.929776 -0.36626 -0.0934713 0.368125 -0.925066)
(0.994934 -3.30788e-19 -0.100531 -0.0125999 -0.992115 -0.124698 -0.0997382 0.125333 -0.987089)
(0.994934 0 -0.100531 0.0125999 -0.992115 0.124698 -0.0997382 -0.125333 -0.987089)
(0.994934 -1.24843e-17 -0.100531 0.0370079 -0.929776 0.36626 -0.0934713 -0.368125 -0.925066)
(0.994934 -1.67418e-17 -0.100531 0.0590906 -0.809017 0.584807 -0.0813313 -0.587785 -0.804918)
(0.994934 0 -0.100531 0.0774604 -0.637424 0.76661 -0.0640808 -0.770513 -0.634195)
(0.994934 2.20344e-17 -0.100531 0.0909631 -0.425779 0.900243 -0.042804 -0.904827 -0.423622)
(0.994934 -1.65978e-17 -0.100531 0.0987503 -0.187381 0.977311 -0.0188376 -0.982287 -0.186432)
(0.994934 1.45051e-17 -0.100531 0.100333 0.0627905 0.992971 0.00631239 -0.998027 0.0624724)
(0.994934 1.38075e-17 -0.100531 0.0956106 0.309017 0.946238 0.0310658 -0.951057 0.307451)
(0.994934 1.93881e-17 -0.100531 0.0848811 0.535827 0.840051 0.0538672 -0.844328 0.533112)
(0.994934 5.58059e-18 -0.100531 0.0688182 0.728969 0.681079 0.0732839 -0.684547 0.725276)
(0.994934 2.62918e-17 -0.100531 0.0484312 0.876307 0.479313 0.088096 -0.481754 0.871867)
(0.994934 2.79029e-18 -0.100531 0.025001 0.968583 0.24743 0.0973726 -0.24869 0.963676)
(0.994934 0 -0.100531 1.5025e-15 1 1.48699e-14 0.100531 -1.49456e-14 0.994934)
(0.994934 -9.03246e-18 -0.100531 -0.025001 0.968583 -0.24743 0.0973726 0.24869 0.963676)
(0.994934 -6.90374e-18 -0.100531 -0.0484312 0.876307 -0.479313 0.088096 0.481754 0.871867)
(0.994934 -1.38075e-17 -0.100531 -0.0688182 0.728969 -0.681079 0.0732839 0.684547 0.725276)
(0.994934 2.6463e-18 -0.100531 -0.0848811 0.535827 -0.840051 0.0538672 0.844328 0.533112)
(0.994934 -1.38075e-17 -0.100531 -0.0956106 0.309017 -0.946238 0.0310658 0.951057 0.307451)
(0.994934 1.38075e-17 -0.100531 -0.100333 0.0627905 -0.992971 0.00631239 0.998027 0.0624724)
(0.994934 1.93881e-17 -0.100531 -0.0987503 -0.187381 -0.977311 -0.0188376 0.982287 -0.186432)
(0.994934 5.58059e-18 -0.100531 -0.0909631 -0.425779 -0.900243 -0.042804 0.904827 -0.423622)
(0.994934 -1.93881e-17 -0.100531 -0.0774604 -0.637424 -0.76661 -0.0640808 0.770513 -0.634195)
(0.994934 1.11612e-17 -0.100531 -0.0590906 -0.809017 -0.584807 -0.0813313 0.587785 -0.804918)
(0.994934 0 -0.100531 -0.0370079 -0.929776 -0.36626 -0.0934713 0.368125 -0.925066)
(0.994934 -3.30788e-19 -0.100531 -0.0125999 -0.992115 -0.124698 -0.0997382 0.125333 -0.987089)
(0.994934 -4.84702e-18 -0.100531 0.0125999 -0.992115 0.124698 -0.0997382 -0.125333 -0.987089)
(0.994934 -5.58059e-18 -0.100531 0.0370079 -0.929776 0.36626 -0.0934713 -0.368125 -0.925066)
(0.994934 2.6463e-18 -0.100531 0.0590906 -0.809017 0.584807 -0.0813313 -0.587785 -0.804918)
(0.994934 -5.58059e-18 -0.100531 0.0774604 -0.637424 0.76661 -0.0640808 -0.770513 -0.634195)
(0.994934 0 -0.100531 0.0909631 -0.425779 0.900243 -0.042804 -0.904827 -0.423622)
(0.994934 0 -0.100531 0.0987503 -0.187381 0.977311 -0.0188376 -0.982287 -0.186432)
(0.994934 -1.31099e-17 -0.100531 0.100333 0.0627905 0.992971 0.00631239 -0.998027 0.0624724)
(0.994934 -5.58059e-18 -0.100531 0.0956106 0.309017 0.946238 0.0310658 -0.951057 0.307451)
(0.994934 5.58059e-18 -0.100531 0.0848811 0.535827 0.840051 0.0538672 -0.844328 0.533112)
(0.994934 1.93881e-17 -0.100531 0.0688182 0.728969 0.681079 0.0732839 -0.684547 0.725276)
(0.994934 6.90374e-18 -0.100531 0.0484312 0.876307 0.479313 0.088096 -0.481754 0.871867)
(0.994934 9.69404e-18 -0.100531 0.025001 0.968583 0.24743 0.0973726 -0.24869 0.963676)
(0.994934 0.0870624 -0.0502655 -0.0968277 0.964357 -0.24625 0.0270348 0.24987 0.967902)
(0.994934 0.0870624 -0.0502655 -0.100509 0.87192 -0.479221 0.00210536 0.481846 0.876254)
(0.994934 0.0870624 -0.0502655 -0.0978748 0.724697 -0.682081 -0.0229563 0.683545 0.729547)
(0.994934 0.0870624 -0.0502655 -0.0890909 0.531939 -0.842083 -0.0465756 0.842295 0.537)
(0.994934 0.0870624 -0.0502655 -0.0747091 0.305757 -0.949174 -0.0672683 0.948121 0.310712)
(0.994934 0.0870624 -0.0502655 -0.055633 0.0603626 -0.996625 -0.0837344 0.994372 0.0649003)
(0.994934 0.0870624 -0.0502655 -0.0330613 -0.188824 -0.981454 -0.0949391 0.978144 -0.184989)
(0.994934 0.0870624 -0.0502655 -0.00841221 -0.426146 -0.904615 -0.100178 0.900455 -0.423255)
(0.994934 0.0870624 -0.0502655 0.0167654 -0.636692 -0.770936 -0.0991231 0.766187 -0.634926)
(0.994934 0.0870624 -0.0502655 0.0408896 -0.807233 -0.588816 -0.0918396 0.583777 -0.806703)
(0.994934 0.0870624 -0.0502655 0.0624446 -0.927051 -0.369698 -0.0787855 0.364686 -0.927791)
(0.994934 0.0870624 -0.0502655 0.0800759 -0.98862 -0.127351 -0.0607809 0.122681 -0.990583)
(0.994934 0.0870624 -0.0502655 0.0926758 -0.98807 0.122998 -0.0389573 -0.127033 -0.991133)
(0.994934 0.0870624 -0.0502655 0.0994525 -0.925436 0.365619 -0.0146859 -0.368765 -0.929406)
(0.994934 0.0870624 -0.0502655 0.0999802 -0.804654 0.585266 0.0105083 -0.587327 -0.809282)
(0.994934 0.0870624 -0.0502655 0.0942259 -0.633312 0.768139 0.0350423 -0.768984 -0.638307)
(0.994934 0.0870624 -0.0502655 0.0825509 -0.422177 0.902747 0.0573744 -0.902323 -0.427225)
(0.994934 0.0870624 -0.0502655 0.065689 -0.184515 0.980632 0.0761014 -0.978966 -0.189299)
(0.994934 0.0870624 -0.0502655 0.0446996 0.0647413 0.9969 0.0900468 -0.994097 0.0605217)
(0.994934 0.0870624 -0.0502655 0.0209016 0.309929 0.95053 0.0983341 -0.946765 0.306539)
(0.994934 0.0870624 -0.0502655 -0.0042098 0.535643 0.844434 0.100443 -0.839944 0.533296)
(0.994934 0.0870624 -0.0502655 -0.0290566 0.727701 0.685279 0.0962403 -0.680347 0.726544)
(0.994934 0.0870624 -0.0502655 -0.0520778 0.874034 0.483066 0.0859906 -0.478001 0.87414)
(0.994934 0.0870624 -0.0502655 -0.0718266 0.965449 0.2505 0.0703378 -0.24562 0.966811)
(0.994934 0.0870624 -0.0502655 -0.0870624 0.9962 0.00219367 0.0502655 0.00219367 0.998733)
(0.994934 0.0870624 -0.0502655 -0.0968277 0.964357 -0.24625 0.0270348 0.24987 0.967902)
(0.994934 0.0870624 -0.0502655 -0.100509 0.87192 -0.479221 0.00210536 0.481846 0.876254)
(0.994934 0.0870624 -0.0502655 -0.0978748 0.724697 -0.682081 -0.0229563 0.683545 0.729547)
(0.994934 0.0870624 -0.0502655 -0.0890909 0.531939 -0.842083 -0.0465756 0.842295 0.537)
(0.994934 0.0870624 -0.0502655 -0.0747091 0.305757 -0.949174 -0.0672683 0.948121 0.310712)
(0.994934 0.0870624 -0.0502655 -0.055633 0.0603626 -0.996625 -0.0837344 0.994372 0.0649003)
(0.994934 0.0870624 -0.0502655 -0.0330613 -0.188824 -0.981454 -0.0949391 0.978144 -0.184989)
(0.994934 0.0870624 -0.0502655 -0.00841221 -0.426146 -0.904615 -0.100178 0.900455 -0.423255)
(0.994934 0.0870624 -0.0502655 0.0167654 -0.636692 -0.770936 -0.0991231 0.766187 -0.634926)
(0.994934 0.0870624 -0.0502655 0.0408896 -0.807233 -0.588816 -0.0918396 0.583777 -0.806703)
(0.994934 0.0870624 -0.0502655 0.0624446 -0.927051 -0.369698 -0.0787855 0.364686 -0.927791)
(0.994934 0.0870624 -0.0502655 0.0800759 -0.98862 -0.127351 -0.0607809 0.122681 -0.990583)
(0.994934 0.0870624 -0.0502655 0.0926758 -0.98807 0.122998 -0.0389573 -0.127033 -0.991133)
(0.994934 0.0870624 -0.0502655 0.0994525 -0.925436 0.365619 -0.0146859 -0.368765 -0.929406)
(0.994934 0.0870624 -0.0502655 0.0999802 -0.804654 0.585266 0.0105083 -0.587327 -0.809282)
(0.994934 0.0870624 -0.0502655 0.0942259 -0.633312 0.768139 0.0350423 -0.768984 -0.638307)
(0.994934 0.0870624 -0.0502655 0.0825509 -0.422177 0.902747 0.0573744 -0.902323 -0.427225)
(0.994934 0.0870624 -0.0502655 0.065689 -0.184515 0.980632 0.0761014 -0.978966 -0.189299)
(0.994934 0.0870624 -0.0502655 0.0446996 0.0647413 0.9969 0.0900468 -0.994097 0.0605217)
(0.994934 0.0870624 -0.0502655 0.0209016 0.309929 0.95053 0.0983341 -0.946765 0.306539)
(0.994934 0.0870624 -0.0502655 -0.0042098 0.535643 0.844434 0.100443 -0.839944 0.533296)
(0.994934 0.0870624 -0.0502655 -0.0290566 0.727701 0.685279 0.0962403 -0.680347 0.726544)
(0.994934 0.0870624 -0.0502655 -0.0520778 0.874034 0.483066 0.0859906 -0.478001 0.87414)
(0.994934 0.0870624 -0.0502655 -0.0718266 0.965449 0.2505 0.0703378 -0.24562 0.966811)
(0.994934 0.0870624 -0.0502655 -0.0870624 0.9962 0.00219367 0.0502655 0.00219367 0.998733)
(0.994934 0.0870624 -0.0502655 -0.0968277 0.964357 -0.24625 0.0270348 0.24987 0.967902)
(0.994934 0.0870624 -0.0502655 -0.100509 0.87192 -0.479221 0.00210536 0.481846 0.876254)
(0.994934 0.0870624 -0.0502655 -0.0978748 0.724697 -0.682081 -0.0229563 0.683545 0.729547)
(0.994934 0.0870624 -0.0502655 -0.0890909 0.531939 -0.842083 -0.0465756 0.842295 0.537)
(0.994934 0.0870624 -0.0502655 -0.0747091 0.305757 -0.949174 -0.0672683 0.948121 0.310712)
(0.994934 0.0870624 -0.0502655 -0.055633 0.0603626 -0.996625 -0.0837344 0.994372 0.0649003)
(0.994934 0.0870624 -0.0502655 -0.0330613 -0.188824 -0.981454 -0.0949391 0.978144 -0.184989)
(0.994934 0.0870624 -0.0502655 -0.00841221 -0.426146 -0.904615 -0.100178 0.900455 -0.423255)
(0.994934 0.0870624 -0.0502655 0.0167654 -0.636692 -0.770936 -0.0991231 0.766187 -0.634926)
(0.994934 0.0870624 -0.0502655 0.0408896 -0.807233 -0.588816 -0.0918396 0.583777 -0.806703)
(0.994934 0.0870624 -0.0502655 0.0624446 -0.927051 -0.369698 -0.0787855 0.364686 -0.927791)
(0.994934 0.0870624 -0.0502655 0.0800759 -0.98862 -0.127351 -0.0607809 0.122681 -0.990583)
(0.994934 0.0870624 -0.0502655 0.0926758 -0.98807 0.122998 -0.0389573 -0.127033 -0.991133)
(0.994934 0.0870624 -0.0502655 0.0994525 -0.925436 0.365619 -0.0146859 -0.368765 -0.929406)
(0.994934 0.0870624 -0.0502655 0.0999802 -0.804654 0.585266 0.0105083 -0.587327 -0.809282)
(0.994934 0.0870624 -0.0502655 0.0942259 -0.633312 0.768139 0.0350423 -0.768984 -0.638307)
(0.994934 0.0870624 -0.0502655 0.0825509 -0.422177 0.902747 0.0573744 -0.902323 -0.427225)
(0.994934 0.0870624 -0.0502655 0.065689 -0.184515 0.980632 0.0761014 -0.978966 -0.189299)
(0.994934 0.0870624 -0.0502655 0.0446996 0.0647413 0.9969 0.0900468 -0.994097 0.0605217)
(0.994934 0.0870624 -0.0502655 0.0209016 0.309929 0.95053 0.0983341 -0.946765 0.306539)
(0.994934 0.0870624 -0.0502655 -0.0042098 0.535643 0.844434 0.100443 -0.839944 0.533296)
(0.994934 0.0870624 -0.0502655 -0.0290566 0.727701 0.685279 0.0962403 -0.680347 0.726544)
(0.994934 0.0870624 -0.0502655 -0.0520778 0.874034 0.483066 0.0859906 -0.478001 0.87414)
(0.994934 0.0870624 -0.0502655 -0.0718266 0.965449 0.2505 0.0703378 -0.24562 0.966811)
(0.994934 0.0870624 -0.0502655 -0.0870624 0.9962 0.00219367 0.0502655 0.00219367 0.998733)
(0.994934 0.0870624 -0.0502655 -0.0968277 0.964357 -0.24625 0.0270348 0.24987 0.967902)
(0.994934 0.0870624 -0.0502655 -0.100509 0.87192 -0.479221 0.00210536 0.481846 0.876254)
(0.994934 0.0870624 -0.0502655 -0.0978748 0.724697 -0.682081 -0.0229563 0.683545 0.729547)
(0.994934 0.0870624 -0.0502655 -0.0890909 0.531939 -0.842083 -0.0465756 0.842295 0.537)
(0.994934 0.0870624 -0.0502655 -0.0747091 0.305757 -0.949174 -0.0672683 0.948121 0.310712)
(0.994934 0.0870624 -0.0502655 -0.055633 0.0603626 -0.996625 -0.0837344 0.994372 0.0649003)
(0.994934 0.0870624 -0.0502655 -0.0330613 -0.188824 -0.981454 -0.0949391 0.978144 -0.184989)
(0.994934 0.0870624 -0.0502655 -0.00841221 -0.426146 -0.904615 -0.100178 0.900455 -0.423255)
(0.994934 0.0870624 -0.0502655 0.0167654 -0.636692 -0.770936 -0.0991231 0.766187 -0.634926)
(0.994934 0.0870624 -0.0502655 0.0408896 -0.807233 -0.588816 -0.0918396 0.583777 -0.806703)
(0.994934 0.0870624 -0.0502655 0.0624446 -0.927051 -0.369698 -0.0787855 0.364686 -0.927791)
(0.994934 0.0870624 -0.0502655 0.0800759 -0.98862 -0.127351 -0.0607809 0.122681 -0.990583)
(0.994934 0.0870624 -0.0502655 0.0926758 -0.98807 0.122998 -0.0389573 -0.127033 -0.991133)
(0.994934 0.0870624 -0.0502655 0.0994525 -0.925436 0.365619 -0.0146859 -0.368765 -0.929406)
(0.994934 0.0870624 -0.0502655 0.0999802 -0.804654 0.585266 0.0105083 -0.587327 -0.809282)
(0.994934 0.0870624 -0.0502655 0.0942259 -0.633312 0.768139 0.0350423 -0.768984 -0.638307)
(0.994934 0.0870624 -0.0502655 0.0825509 -0.422177 0.902747 0.0573744 -0.902323 -0.427225)
(0.994934 0.0870624 -0.0502655 0.065689 -0.184515 0.980632 0.0761014 -0.978966 -0.189299)
(0.994934 0.0870624 -0.0502655 0.0446996 0.0647413 0.9969 0.0900468 -0.994097 0.0605217)
(0.994934 0.0870624 -0.0502655 0.0209016 0.309929 0.95053 0.0983341 -0.946765 0.306539)
(0.994934 0.0870624 -0.0502655 -0.0042098 0.535643 0.844434 0.100443 -0.839944 0.533296)
(0.994934 0.0870624 -0.0502655 -0.0290566 0.727701 0.685279 0.0962403 -0.680347 0.726544)
(0.994934 0.0870624 -0.0502655 -0.0520778 0.874034 0.483066 0.0859906 -0.478001 0.87414)
(0.994934 0.0870624 -0.0502655 -0.0718266 0.965449 0.2505 0.0703378 -0.24562 0.966811)
(0.994934 0.0870624 0.0502655 -0.0718266 0.965449 -0.2505 -0.0703378 0.24562 0.966811)
(0.994934 0.0870624 0.0502655 -0.0520778 0.874034 -0.483066 -0.0859906 0.478001 0.87414)
(0.994934 0.0870624 0.0502655 -0.0290566 0.727701 -0.685279 -0.0962403 0.680347 0.726544)
(0.994934 0.0870624 0.0502655 -0.0042098 0.535643 -0.844434 -0.100443 0.839944 0.533296)
(0.994934 0.0870624 0.0502655 0.0209016 0.309929 -0.95053 -0.0983341 0.946765 0.306539)
(0.994934 0.0870624 0.0502655 0.0446996 0.0647413 -0.9969 -0.0900468 0.994097 0.0605217)
(0.994934 0.0870624 0.0502655 0.065689 -0.184515 -0.980632 -0.0761014 0.978966 -0.189299)
(0.994934 0.0870624 0.0502655 0.0825509 -0.422177 -0.902747 -0.0573744 0.902323 -0.427225)
(0.994934 0.0870624 0.0502655 0.0942259 -0.633312 -0.768139 -0.0350423 0.768984 -0.638307)
(0.994934 0.0870624 0.0502655 0.0999802 -0.804654 -0.585266 -0.0105083 0.587327 -0.809282)
(0.994934 0.0870624 0.0502655 0.0994525 -0.925436 -0.365619 0.0146859 0.368765 -0.929406)
(0.994934 0.0870624 0.0502655 0.0926758 -0.98807 -0.122998 0.0389573 0.127033 -0.991133)
(0.994934 0.0870624 0.0502655 0.0800759 -0.98862 0.127351 0.0607809 -0.122681 -0.990583)
(0.994934 0.0870624 0.0502655 0.0624446 -0.927051 0.369698 0.0787855 -0.364686 -0.927791)
(0.994934 0.0870624 0.0502655 0.0408896 -0.807233 0.588816 0.0918396 -0.583777 -0.806703)
(0.994934 0.0870624 0.0502655 0.0167654 -0.636692 0.770936 0.0991231 -0.766187 -0.634926)
(0.994934 0.0870624 0.0502655 -0.00841221 -0.426146 0.904615 0.100178 -0.900455 -0.423255)
(0.994934 0.0870624 0.0502655 -0.0330613 -0.188824 0.981454 0.0949391 -0.978144 -0.184989)
(0.994934 0.0870624 0.0502655 -0.055633 0.0603626 0.996625 0.0837344 -0.994372 0.0649003)
(0.994934 0.0870624 0.0502655 -0.0747091 0.305757 0.949174 0.0672683 -0.948121 0.310712)
(0.994934 0.0870624 0.0502655 -0.0890909 0.531939 0.842083 0.0465756 -0.842295 0.537)
(0.994934 0.0870624 0.0502655 -0.0978748 0.724697 0.682081 0.0229563 -0.683545 0.729547)
(0.994934 0.0870624 0.0502655 -0.100509 0.87192 0.479221 -0.00210536 -0.481846 0.876254)
(0.994934 0.0870624 0.0502655 -0.0968277 0.964357 0.24625 -0.0270348 -0.24987 0.967902)
(0.994934 0.0870624 0.0502655 -0.0870624 0.9962 -0.00219367 -0.0502655 -0.00219367 0.998733)
(0.994934 0.0870624 0.0502655 -0.0718266 0.965449 -0.2505 -0.0703378 0.24562 0.966811)
(0.994934 0.0870624 0.0502655 -0.0520778 0.874034 -0.483066 -0.0859906 0.478001 0.87414)
(0.994934 0.0870624 0.0502655 -0.0290566 0.727701 -0.685279 -0.0962403 0.680347 0.726544)
(0.994934 0.0870624 0.0502655 -0.0042098 0.535643 -0.844434 -0.100443 0.839944 0.533296)
(0.994934 0.0870624 0.0502655 0.0209016 0.309929 -0.95053 -0.0983341 0.946765 0.306539)
(0.994934 0.0870624 0.0502655 0.0446996 0.0647413 -0.9969 -0.0900468 0.994097 0.0605217)
(0.994934 0.0870624 0.0502655 0.065689 -0.184515 -0.980632 -0.0761014 0.978966 -0.189299)
(0.994934 0.0870624 0.0502655 0.0825509 -0.422177 -0.902747 -0.0573744 0.902323 -0.427225)
(0.994934 0.0870624 0.0502655 0.0942259 -0.633312 -0.768139 -0.0350423 0.768984 -0.638307)
(0.994934 0.0870624 0.0502655 0.0999802 -0.804654 -0.585266 -0.0105083 0.587327 -0.809282)
(0.994934 0.0870624 0.0502655 0.0994525 -0.925436 -0.365619 0.0146859 0.368765 -0.929406)
(0.994934 0.0870624 0.0502655 0.0926758 -0.98807 -0.122998 0.0389573 0.127033 -0.991133)
(0.994934 0.0870624 0.0502655 0.0800759 -0.98862 0.127351 0.0607809 -0.122681 -0.990583)
(0.994934 0.0870624 0.0502655 0.0624446 -0.927051 0.369698 0.0787855 -0.364686 -0.927791)
(0.994934 0.0870624 0.0502655 0.0408896 -0.807233 0.588816 0.0918396 -0.583777 -0.806703)
(0.994934 0.0870624 0.0502655 0.0167654 -0.636692 0.770936 0.0991231 -0.766187 -0.634926)
(0.994934 0.0870624 0.0502655 -0.00841221 -0.426146 0.904615 0.100178 -0.900455 -0.423255)
(0.994934 0.0870624 0.0502655 -0.0330613 -0.188824 0.981454 0.0949391 -0.978144 -0.184989)
(0.994934 0.0870624 0.0502655 -0.055633 0.0603626 0.996625 0.0837344 -0.994372 0.0649003)
(0.994934 0.0870624 0.0502655 -0.0747091 0.305757 0.949174 0.0672683 -0.948121 0.310712)
(0.994934 0.0870624 0.0502655 -0.0890909 0.531939 0.842083 0.0465756 -0.842295 0.537)
(0.994934 0.0870624 0.0502655 -0.0978748 0.724697 0.682081 0.0229563 -0.683545 0.729547)
(0.994934 0.0870624 0.0502655 -0.100509 0.87192 0.479221 -0.00210536 -0.481846 0.876254)
(0.994934 0.0870624 0.0502655 -0.0968277 0.964357 0.24625 -0.0270348 -0.24987 0.967902)
(0.994934 0.0870624 0.0502655 -0.0870624 0.9962 -0.00219367 -0.0502655 -0.00219367 0.998733)
(0.994934 0.0870624 0.0502655 -0.0718266 0.965449 -0.2505 -0.0703378 0.24562 0.966811)
(0.994934 0.0870624 0.0502655 -0.0520778 0.874034 -0.483066 -0.0859906 0.478001 0.87414)
(0.994934 0.0870624 0.0502655 -0.0290566 0.727701 -0.685279 -0.0962403 0.680347 0.726544)
(0.994934 0.0870624 0.0502655 -0.0042098 0.535643 -0.844434 -0.100443 0.839944 0.533296)
(0.994934 0.0870624 0.0502655 0.0209016 0.309929 -0.95053 -0.0983341 0.946765 0.306539)
(0.994934 0.0870624 0.0502655 0.0446996 0.0647413 -0.9969 -0.0900468 0.994097 0.0605217)
(0.994934 0.0870624 0.0502655 0.065689 -0.184515 -0.980632 -0.0761014 0.978966 -0.189299)
(0.994934 0.0870624 0.0502655 0.0825509 -0.422177 -0.902747 -0.0573744 0.902323 -0.427225)
(0.994934 0.0870624 0.0502655 0.0942259 -0.633312 -0.768139 -0.0350423 0.768984 -0.638307)
(0.994934 0.0870624 0.0502655 0.0999802 -0.804654 -0.585266 -0.0105083 0.587327 -0.809282)
(0.994934 0.0870624 0.0502655 0.0994525 -0.925436 -0.365619 0.0146859 0.368765 -0.929406)
(0.994934 0.0870624 0.0502655 0.0926758 -0.98807 -0.122998 0.0389573 0.127033 -0.991133)
(0.994934 0.0870624 0.0502655 0.0800759 -0.98862 0.127351 0.0607809 -0.122681 -0.990583)
(0.994934 0.0870624 0.0502655 0.0624446 -0.927051 0.369698 0.0787855 -0.364686 -0.927791)
(0.994934 0.0870624 0.0502655 0.0408896 -0.807233 0.588816 0.0918396 -0.583777 -0.806703)
(0.994934 0.0870624 0.0502655 0.0167654 -0.636692 0.770936 0.0991231 -0.766187 -0.634926)
(0.994934 0.0870624 0.0502655 -0.00841221 -0.426146 0.904615 0.100178 -0.900455 -0.423255)
(0.994934 0.0870624 0.0502655 -0.0330613 -0.188824 0.981454 0.0949391 -0.978144 -0.184989)
(0.994934 0.0870624 0.0502655 -0.055633 0.0603626 0.996625 0.0837344 -0.994372 0.0649003)
(0.994934 0.0870624 0.0502655 -0.0747091 0.305757 0.949174 0.0672683 -0.948121 0.310712)
(0.994934 0.0870624 0.0502655 -0.0890909 0.531939 0.842083 0.0465756 -0.842295 0.537)
(0.994934 0.0870624 0.0502655 -0.0978748 0.724697 0.682081 0.0229563 -0.683545 0.729547)
(0.994934 0.0870624 0.0502655 -0.100509 0.87192 0.479221 -0.00210536 -0.481846 0.876254)
(0.994934 0.0870624 0.0502655 -0.0968277 0.964357 0.24625 -0.0270348 -0.24987 0.967902)
(0.994934 0.0870624 0.0502655 -0.0870624 0.9962 -0.00219367 -0.0502655 -0.00219367 0.998733)
(0.994934 0.0870624 0.0502655 -0.0718266 0.965449 -0.2505 -0.0703378 0.24562 0.966811)
(0.994934 0.0870624 0.0502655 -0.0520778 0.874034 -0.483066 -0.0859906 0.478001 0.87414)
(0.994934 0.0870624 0.0502655 -0.0290566 0.727701 -0.685279 -0.0962403 0.680347 0.726544)
(0.994934 0.0870624 0.0502655 -0.0042098 0.535643 -0.844434 -0.100443 0.839944 0.533296)
(0.994934 0.0870624 0.0502655 0.0209016 0.309929 -0.95053 -0.0983341 0.946765 0.306539)
(0.994934 0.0870624 0.0502655 0.0446996 0.0647413 -0.9969 -0.0900468 0.994097 0.0605217)
(0.994934 0.0870624 0.0502655 0.065689 -0.184515 -0.980632 -0.0761014 0.978966 -0.189299)
(0.994934 0.0870624 0.0502655 0.0825509 -0.422177 -0.902747 -0.0573744 0.902323 -0.427225)
(0.994934 0.0870624 0.0502655 0.0942259 -0.633312 -0.768139 -0.0350423 0.768984 -0.638307)
(0.994934 0.0870624 0.0502655 0.0999802 -0.804654 -0.585266 -0.0105083 0.587327 -0.809282)
(0.994934 0.0870624 0.0502655 0.0994525 -0.925436 -0.365619 0.0146859 0.368765 -0.929406)
(0.994934 0.0870624 0.0502655 0.0926758 -0.98807 -0.122998 0.0389573 0.127033 -0.991133)
(0.994934 0.0870624 0.0502655 0.0800759 -0.98862 0.127351 0.0607809 -0.122681 -0.990583)
(0.994934 0.0870624 0.0502655 0.0624446 -0.927051 0.369698 0.0787855 -0.364686 -0.927791)
(0.994934 0.0870624 0.0502655 0.0408896 -0.807233 0.588816 0.0918396 -0.583777 -0.806703)
(0.994934 0.0870624 0.0502655 0.0167654 -0.636692 0.770936 0.0991231 -0.766187 -0.634926)
(0.994934 0.0870624 0.0502655 -0.00841221 -0.426146 0.904615 0.100178 -0.900455 -0.423255)
(0.994934 0.0870624 0.0502655 -0.0330613 -0.188824 0.981454 0.0949391 -0.978144 -0.184989)
(0.994934 0.0870624 0.0502655 -0.055633 0.0603626 0.996625 0.0837344 -0.994372 0.0649003)
(0.994934 0.0870624 0.0502655 -0.0747091 0.305757 0.949174 0.0672683 -0.948121 0.310712)
(0.994934 0.0870624 0.0502655 -0.0890909 0.531939 0.842083 0.0465756 -0.842295 0.537)
(0.994934 0.0870624 0.0502655 -0.0978748 0.724697 0.682081 0.0229563 -0.683545 0.729547)
(0.994934 0.0870624 0.0502655 -0.100509 0.87192 0.479221 -0.00210536 -0.481846 0.876254)
(0.994934 0.0870624 0.0502655 -0.0968277 0.964357 0.24625 -0.0270348 -0.24987 0.967902)
(0.994934 1.04996e-17 0.100531 0.025001 0.968583 -0.24743 -0.0973726 0.24869 0.963676)
(0.994934 9.83803e-18 0.100531 0.0484312 0.876307 -0.479313 -0.088096 0.481754 0.871867)
(0.994934 2.93429e-18 0.100531 0.0688182 0.728969 -0.681079 -0.0732839 0.684547 0.725276)
(0.994934 3.61298e-17 0.100531 0.0848811 0.535827 -0.840051 -0.0538672 0.844328 0.533112)