/*--------------------------------*- C++ -*----------------------------------*\
| =========                 |                                                 |
| \\      /  F ield         | foam-extend: Open Source CFD                    |
|  \\    /   O peration     | Version:     4.1                                |
|   \\  /    A nd           | Web:         http://www.foam-extend.org         |
|    \\/     M anipulation  |                                                 |
\*---------------------------------------------------------------------------*/
FoamFile
{
    version     2.0;
    format      ascii;
    class       pointVectorField;
    location    "0";
    object      pointW;
}
// * * * * * * * * * * * * * * * * * * * * * * * * * * * * * * * * * * * * * //

dimensions      [0 1 0 0 0 0 0];

internalField   nonuniform List<vector> 
84
(
(0 0 0)
(0 0 0)
(0 0 0)
(0 0 0)
(0.0186207 0.0774818 0)
(0.0186207 0.0774818 0)
(-0.0206391 0.0767109 0)
(-0.0206391 0.0767109 0)
(0.0311575 0.309808 0)
(0.0311575 0.309808 0)
(-0.0473016 0.306725 0)
(-0.0473016 0.306725 0)
(0.0315359 0.696623 0)
(0.0315359 0.696623 0)
(-0.0860018 0.689692 0)
(-0.0860018 0.689692 0)
(0.0137002 1.23733 0)
(0.0137002 1.23733 0)
(-0.142735 1.22502 0)
(-0.142735 1.22502 0)
(-0.0283774 1.93109 0)
(-0.0283774 1.93109 0)
(-0.223468 1.91187 0)
(-0.223468 1.91187 0)
(-0.100685 2.77681 0)
(-0.100685 2.77681 0)
(-0.33413 2.74918 0)
(-0.33413 2.74918 0)
(-0.209169 3.77324 0)
(-0.209169 3.77324 0)
(-0.48061 3.7357 0)
(-0.48061 3.7357 0)
(-0.359718 4.91881 0)
(-0.359718 4.91881 0)
(-0.668734 4.86987 0)
(-0.668734 4.86987 0)
(-0.558152 6.21177 0)
(-0.558152 6.21177 0)
(-0.904269 6.14996 0)
(-0.904269 6.14996 0)
(-0.810223 7.65011 0)
(-0.810223 7.65011 0)
(-1.19291 7.57398 0)
(-1.19291 7.57398 0)
(-1.1216 9.23161 0)
(-1.1216 9.23161 0)
(-1.54026 9.13976 0)
(-1.54026 9.13976 0)
(-1.49785 10.9539 0)
(-1.49785 10.9539 0)
(-1.95184 10.8449 0)
(-1.95184 10.8449 0)
(-1.94445 12.8142 0)
(-1.94445 12.8142 0)
(-2.43307 12.6867 0)
(-2.43307 12.6867 0)
(-2.46677 14.8097 0)
(-2.46677 14.8097 0)
(-2.98927 14.6623 0)
(-2.98927 14.6623 0)
(-3.07006 16.9373 0)
(-3.07006 16.9373 0)
(-3.62563 16.7688 0)
(-3.62563 16.7688 0)
(-3.75945 19.1938 0)
(-3.75945 19.1938 0)
(-4.34723 19.0028 0)
(-4.34723 19.0028 0)
(-4.53989 21.5756 0)
(-4.53989 21.5756 0)
(-5.15899 21.3609 0)
(-5.15899 21.3609 0)
(-5.4163 24.0792 0)
(-5.4163 24.0792 0)
(-6.06575 23.8396 0)
(-6.06575 23.8396 0)
(-6.39335 26.7006 0)
(-6.39335 26.7006 0)
(-7.07215 26.4349 0)
(-7.07215 26.4349 0)
(-7.47558 29.4358 0)
(-7.47558 29.4358 0)
(-8.18269 29.1429 0)
(-8.18269 29.1429 0)
)
;

boundaryField
{
    left
    {
        type            calculated;
    }
    right
    {
        type            calculated;
    }
    beam
    {
        type            empty;
    }
}


// ************************************************************************* //
