/*--------------------------------*- C++ -*----------------------------------*\
| =========                 |                                                 |
| \\      /  F ield         | foam-extend: Open Source CFD                    |
|  \\    /   O peration     | Version:     4.1                                |
|   \\  /    A nd           | Web:         http://www.foam-extend.org         |
|    \\/     M anipulation  |                                                 |
\*---------------------------------------------------------------------------*/
FoamFile
{
    version     2.0;
    format      ascii;
    class       surfaceTensorField;
    location    "0";
    object      refLambda;
}
// * * * * * * * * * * * * * * * * * * * * * * * * * * * * * * * * * * * * * //

dimensions      [0 0 0 0 0 0 0];

internalField   nonuniform List<tensor> 
19
(
(0.999229 -0.0392598 0 0.0392598 0.999229 0 0 0 1)
(0.996917 -0.0784591 0 0.0784591 0.996917 0 0 0 1)
(0.993068 -0.117538 0 0.117538 0.993068 0 0 0 1)
(0.987688 -0.156435 0 0.156435 0.987688 0 0 0 1)
(0.980785 -0.195091 0 0.195091 0.980785 0 0 0 1)
(0.97237 -0.233445 0 0.233445 0.97237 0 0 0 1)
(0.962455 -0.27144 0 0.27144 0.962455 0 0 0 1)
(0.951057 -0.309017 0 0.309017 0.951057 0 0 0 1)
(0.938191 -0.346117 0 0.346117 0.938191 0 0 0 1)
(0.92388 -0.382683 0 0.382683 0.92388 0 0 0 1)
(0.908143 -0.41866 0 0.41866 0.908143 0 0 0 1)
(0.891006 -0.453991 0 0.453991 0.891006 0 0 0 1)
(0.872496 -0.488622 0 0.488622 0.872496 0 0 0 1)
(0.85264 -0.522499 0 0.522499 0.85264 0 0 0 1)
(0.831469 -0.555571 0 0.555571 0.831469 0 0 0 1)
(0.809017 -0.587786 0 0.587786 0.809017 0 0 0 1)
(0.785317 -0.619094 0 0.619094 0.785317 0 0 0 1)
(0.760406 -0.649448 0 0.649448 0.760406 0 0 0 1)
(0.734323 -0.678801 0 0.678801 0.734323 0 0 0 1)
)
;

boundaryField
{
    left
    {
        type            calculated;
        value           uniform (1 -0 0 0 1 0 0 0 1);
    }
    right
    {
        type            calculated;
        value           uniform (0.707107 -0.707107 0 0.707107 0.707107 0 0 0 1);
    }
    beam
    {
        type            empty;
    }
}


// ************************************************************************* //
