/*--------------------------------*- C++ -*----------------------------------*\
| =========                 |                                                 |
| \\      /  F ield         | foam-extend: Open Source CFD                    |
|  \\    /   O peration     | Version:     4.1                                |
|   \\  /    A nd           | Web:         http://www.foam-extend.org         |
|    \\/     M anipulation  |                                                 |
\*---------------------------------------------------------------------------*/
FoamFile
{
    version     2.0;
    format      ascii;
    class       surfaceVectorField;
    location    "0";
    object      refWf;
}
// * * * * * * * * * * * * * * * * * * * * * * * * * * * * * * * * * * * * * //

dimensions      [0 1 0 0 0 0 0];

internalField   nonuniform List<vector> 
19
(
(-0.00100924 0.0770964 0)
(-0.00807206 0.308267 0)
(-0.0272329 0.693158 0)
(-0.0645172 1.23117 0)
(-0.125923 1.92148 0)
(-0.217407 2.763 0)
(-0.34489 3.75447 0)
(-0.514226 4.89434 0)
(-0.731211 6.18086 0)
(-1.00156 7.61205 0)
(-1.33093 9.18568 0)
(-1.72484 10.8994 0)
(-2.18876 12.7504 0)
(-2.72802 14.736 0)
(-3.34785 16.8531 0)
(-4.05334 19.0983 0)
(-4.84944 21.4683 0)
(-5.74102 23.9594 0)
(-6.73275 26.5677 0)
)
;

boundaryField
{
    left
    {
        type            calculated;
        value           uniform (0 0 0);
    }
    right
    {
        type            calculated;
        value           uniform (-7.82914 29.2893 0);
    }
    beam
    {
        type            empty;
    }
}


// ************************************************************************* //
