/*--------------------------------*- C++ -*----------------------------------*\
| =========                 |                                                 |
| \\      /  F ield         | foam-extend: Open Source CFD                    |
|  \\    /   O peration     | Version:     4.1                                |
|   \\  /    A nd           | Web:         http://www.foam-extend.org         |
|    \\/     M anipulation  |                                                 |
\*---------------------------------------------------------------------------*/
FoamFile
{
    version     2.0;
    format      ascii;
    class       pointVectorField;
    location    "0";
    object      pointW;
}
// * * * * * * * * * * * * * * * * * * * * * * * * * * * * * * * * * * * * * //

dimensions      [0 1 0 0 0 0 0];

internalField   nonuniform List<vector> 
1344
(
(-6.05256e-19 6.1939e-19 0)
(0.0019509 0.0019509 0)
(0.00382683 0.00382683 0)
(0.0055557 0.0055557 0)
(0.00707107 0.00707107 0)
(0.0083147 0.0083147 0)
(0.0092388 0.0092388 0)
(0.00980785 0.00980785 0)
(0.01 0.01 0)
(0.00980785 0.00980785 0)
(0.0092388 0.0092388 0)
(0.0083147 0.0083147 0)
(0.00707107 0.00707107 0)
(0.0055557 0.0055557 0)
(0.00382683 0.00382683 0)
(0.0019509 0.0019509 0)
(1.84404e-18 6.19394e-19 0)
(-0.0019509 -0.0019509 0)
(-0.00382683 -0.00382683 0)
(-0.0055557 -0.0055557 0)
(-0.00707107 -0.00707107 0)
(-0.0083147 -0.0083147 0)
(-0.0092388 -0.0092388 0)
(-0.00980785 -0.00980785 0)
(-0.01 -0.01 0)
(-0.00980785 -0.00980785 0)
(-0.0092388 -0.0092388 0)
(-0.0083147 -0.0083147 0)
(-0.00707107 -0.00707107 0)
(-0.0055557 -0.0055557 0)
(-0.00382683 -0.00382683 0)
(-0.0019509 -0.0019509 0)
(-0.144764 0.15643 0)
(-0.142837 0.158076 0)
(-0.140984 0.159658 0)
(-0.139277 0.161117 0)
(-0.13778 0.162395 0)
(-0.136552 0.163444 0)
(-0.135639 0.164223 0)
(-0.135077 0.164703 0)
(-0.134887 0.164866 0)
(-0.135077 0.164703 0)
(-0.135639 0.164223 0)
(-0.136552 0.163444 0)
(-0.13778 0.162395 0)
(-0.139277 0.161117 0)
(-0.140984 0.159658 0)
(-0.142837 0.158076 0)
(-0.144764 0.15643 0)
(-0.146691 0.154784 0)
(-0.148544 0.153202 0)
(-0.150251 0.151743 0)
(-0.151748 0.150465 0)
(-0.152976 0.149416 0)
(-0.153889 0.148636 0)
(-0.154451 0.148156 0)
(-0.154641 0.147994 0)
(-0.154451 0.148156 0)
(-0.153889 0.148636 0)
(-0.152976 0.149416 0)
(-0.151748 0.150465 0)
(-0.150251 0.151743 0)
(-0.148544 0.153202 0)
(-0.146691 0.154784 0)
(-0.265209 0.309008 0)
(-0.263354 0.310356 0)
(-0.26157 0.311652 0)
(-0.259926 0.312847 0)
(-0.258484 0.313894 0)
(-0.257302 0.314754 0)
(-0.256423 0.315392 0)
(-0.255882 0.315785 0)
(-0.255699 0.315918 0)
(-0.255882 0.315785 0)
(-0.256423 0.315392 0)
(-0.257302 0.314754 0)
(-0.258484 0.313894 0)
(-0.259926 0.312847 0)
(-0.26157 0.311652 0)
(-0.263354 0.310356 0)
(-0.265209 0.309008 0)
(-0.267065 0.30766 0)
(-0.268849 0.306364 0)
(-0.270493 0.305169 0)
(-0.271934 0.304122 0)
(-0.273117 0.303263 0)
(-0.273996 0.302624 0)
(-0.274537 0.302231 0)
(-0.27472 0.302098 0)
(-0.274537 0.302231 0)
(-0.273996 0.302624 0)
(-0.273117 0.303263 0)
(-0.271934 0.304122 0)
(-0.270493 0.305169 0)
(-0.268849 0.306364 0)
(-0.267065 0.30766 0)
(-0.362238 0.453978 0)
(-0.3605 0.455043 0)
(-0.358828 0.456068 0)
(-0.357288 0.457012 0)
(-0.355937 0.457839 0)
(-0.354829 0.458518 0)
(-0.354006 0.459023 0)
(-0.353499 0.459333 0)
(-0.353328 0.459438 0)
(-0.353499 0.459333 0)
(-0.354006 0.459023 0)
(-0.354829 0.458518 0)
(-0.355937 0.457839 0)
(-0.357288 0.457012 0)
(-0.358828 0.456068 0)
(-0.3605 0.455043 0)
(-0.362238 0.453978 0)
(-0.363976 0.452913 0)
(-0.365648 0.451889 0)
(-0.367188 0.450945 0)
(-0.368538 0.450117 0)
(-0.369646 0.449438 0)
(-0.37047 0.448934 0)
(-0.370977 0.448623 0)
(-0.371148 0.448518 0)
(-0.370977 0.448623 0)
(-0.37047 0.448934 0)
(-0.369646 0.449438 0)
(-0.368538 0.450117 0)
(-0.367188 0.450945 0)
(-0.365648 0.451889 0)
(-0.363976 0.452913 0)
(-0.437328 0.58777 0)
(-0.43575 0.588574 0)
(-0.434232 0.589348 0)
(-0.432833 0.59006 0)
(-0.431607 0.590685 0)
(-0.430601 0.591198 0)
(-0.429853 0.591579 0)
(-0.429393 0.591813 0)
(-0.429238 0.591893 0)
(-0.429393 0.591813 0)
(-0.429853 0.591579 0)
(-0.430601 0.591198 0)
(-0.431607 0.590685 0)
(-0.432833 0.59006 0)
(-0.434232 0.589348 0)
(-0.43575 0.588574 0)
(-0.437328 0.58777 0)
(-0.438906 0.586966 0)
(-0.440424 0.586193 0)
(-0.441823 0.58548 0)
(-0.443049 0.584855 0)
(-0.444055 0.584343 0)
(-0.444802 0.583962 0)
(-0.445263 0.583727 0)
(-0.445418 0.583648 0)
(-0.445263 0.583727 0)
(-0.444802 0.583962 0)
(-0.444055 0.584343 0)
(-0.443049 0.584855 0)
(-0.441823 0.58548 0)
(-0.440424 0.586193 0)
(-0.438906 0.586966 0)
(-0.492498 0.70709 0)
(-0.491119 0.707662 0)
(-0.489792 0.708211 0)
(-0.48857 0.708718 0)
(-0.487498 0.709162 0)
(-0.486619 0.709526 0)
(-0.485965 0.709797 0)
(-0.485563 0.709963 0)
(-0.485427 0.710019 0)
(-0.485563 0.709963 0)
(-0.485965 0.709797 0)
(-0.486619 0.709526 0)
(-0.487498 0.709162 0)
(-0.48857 0.708718 0)
(-0.489792 0.708211 0)
(-0.491119 0.707662 0)
(-0.492498 0.70709 0)
(-0.493878 0.706519 0)
(-0.495204 0.705969 0)
(-0.496427 0.705463 0)
(-0.497498 0.705019 0)
(-0.498378 0.704655 0)
(-0.499031 0.704384 0)
(-0.499434 0.704218 0)
(-0.499569 0.704161 0)
(-0.499434 0.704218 0)
(-0.499031 0.704384 0)
(-0.498378 0.704655 0)
(-0.497498 0.705019 0)
(-0.496427 0.705463 0)
(-0.495204 0.705969 0)
(-0.493878 0.706519 0)
(-0.530258 0.809001 0)
(-0.529111 0.809373 0)
(-0.528008 0.809732 0)
(-0.526992 0.810062 0)
(-0.526101 0.810351 0)
(-0.52537 0.810589 0)
(-0.524827 0.810765 0)
(-0.524493 0.810874 0)
(-0.52438 0.810911 0)
(-0.524493 0.810874 0)
(-0.524827 0.810765 0)
(-0.52537 0.810589 0)
(-0.526101 0.810351 0)
(-0.526992 0.810062 0)
(-0.528008 0.809732 0)
(-0.529111 0.809373 0)
(-0.530258 0.809001 0)
(-0.531404 0.808628 0)
(-0.532507 0.80827 0)
(-0.533523 0.80794 0)
(-0.534414 0.80765 0)
(-0.535145 0.807413 0)
(-0.535688 0.807236 0)
(-0.536023 0.807127 0)
(-0.536136 0.807091 0)
(-0.536023 0.807127 0)
(-0.535688 0.807236 0)
(-0.535145 0.807413 0)
(-0.534414 0.80765 0)
(-0.533523 0.80794 0)
(-0.532507 0.80827 0)
(-0.531404 0.808628 0)
(-0.553545 0.890994 0)
(-0.552659 0.891207 0)
(-0.551808 0.891411 0)
(-0.551023 0.8916 0)
(-0.550335 0.891765 0)
(-0.54977 0.8919 0)
(-0.54935 0.892001 0)
(-0.549092 0.892063 0)
(-0.549005 0.892084 0)
(-0.549092 0.892063 0)
(-0.54935 0.892001 0)
(-0.54977 0.8919 0)
(-0.550335 0.891765 0)
(-0.551023 0.8916 0)
(-0.551808 0.891411 0)
(-0.552659 0.891207 0)
(-0.553545 0.890994 0)
(-0.554431 0.890781 0)
(-0.555282 0.890577 0)
(-0.556067 0.890388 0)
(-0.556755 0.890223 0)
(-0.55732 0.890088 0)
(-0.557739 0.889987 0)
(-0.557998 0.889925 0)
(-0.558085 0.889904 0)
(-0.557998 0.889925 0)
(-0.557739 0.889987 0)
(-0.55732 0.890088 0)
(-0.556755 0.890223 0)
(-0.556067 0.890388 0)
(-0.555282 0.890577 0)
(-0.554431 0.890781 0)
(-0.565652 0.951045 0)
(-0.565049 0.951141 0)
(-0.56447 0.951232 0)
(-0.563935 0.951317 0)
(-0.563467 0.951391 0)
(-0.563083 0.951452 0)
(-0.562797 0.951497 0)
(-0.562621 0.951525 0)
(-0.562562 0.951535 0)
(-0.562621 0.951525 0)
(-0.562797 0.951497 0)
(-0.563083 0.951452 0)
(-0.563467 0.951391 0)
(-0.563935 0.951317 0)
(-0.56447 0.951232 0)
(-0.565049 0.951141 0)
(-0.565652 0.951045 0)
(-0.566255 0.95095 0)
(-0.566835 0.950858 0)
(-0.567369 0.950773 0)
(-0.567838 0.950699 0)
(-0.568222 0.950638 0)
(-0.568508 0.950593 0)
(-0.568683 0.950565 0)
(-0.568743 0.950556 0)
(-0.568683 0.950565 0)
(-0.568508 0.950593 0)
(-0.568222 0.950638 0)
(-0.567838 0.950699 0)
(-0.567369 0.950773 0)
(-0.566835 0.950858 0)
(-0.566255 0.95095 0)
(-0.570151 0.987683 0)
(-0.569845 0.987707 0)
(-0.569552 0.98773 0)
(-0.569281 0.987751 0)
(-0.569044 0.98777 0)
(-0.56885 0.987785 0)
(-0.568705 0.987796 0)
(-0.568616 0.987803 0)
(-0.568586 0.987806 0)
(-0.568616 0.987803 0)
(-0.568705 0.987796 0)
(-0.56885 0.987785 0)
(-0.569044 0.98777 0)
(-0.569281 0.987751 0)
(-0.569552 0.98773 0)
(-0.569845 0.987707 0)
(-0.570151 0.987683 0)
(-0.570456 0.987659 0)
(-0.570749 0.987635 0)
(-0.57102 0.987614 0)
(-0.571257 0.987596 0)
(-0.571452 0.98758 0)
(-0.571596 0.987569 0)
(-0.571685 0.987562 0)
(-0.571715 0.987559 0)
(-0.571685 0.987562 0)
(-0.571596 0.987569 0)
(-0.571452 0.98758 0)
(-0.571257 0.987596 0)
(-0.57102 0.987614 0)
(-0.570749 0.987635 0)
(-0.570456 0.987659 0)
(-0.570796 1 0)
(-0.570796 1 0)
(-0.570796 1 0)
(-0.570796 1 0)
(-0.570796 1 0)
(-0.570796 1 0)
(-0.570796 1 0)
(-0.570796 1 0)
(-0.570796 1 0)
(-0.570796 1 0)
(-0.570796 1 0)
(-0.570796 1 0)
(-0.570796 1 0)
(-0.570796 1 0)
(-0.570796 1 0)
(-0.570796 1 0)
(-0.570796 1 0)
(-0.570796 1 0)
(-0.570797 1 0)
(-0.570797 1 0)
(-0.570797 1 0)
(-0.570797 1 0)
(-0.570797 1 0)
(-0.570797 1 0)
(-0.570797 1 0)
(-0.570797 1 0)
(-0.570797 1 0)
(-0.570797 1 0)
(-0.570797 1 0)
(-0.570797 1 0)
(-0.570797 1 0)
(-0.570796 1 0)
(-0.571441 0.987696 0)
(-0.571746 0.98772 0)
(-0.572039 0.987743 0)
(-0.57231 0.987764 0)
(-0.572547 0.987783 0)
(-0.572741 0.987798 0)
(-0.572886 0.987809 0)
(-0.572975 0.987816 0)
(-0.573005 0.987819 0)
(-0.572975 0.987816 0)
(-0.572886 0.987809 0)
(-0.572741 0.987798 0)
(-0.572547 0.987783 0)
(-0.57231 0.987764 0)
(-0.572039 0.987743 0)
(-0.571746 0.98772 0)
(-0.571441 0.987696 0)
(-0.571136 0.987672 0)
(-0.570842 0.987648 0)
(-0.570572 0.987627 0)
(-0.570335 0.987609 0)
(-0.570141 0.987593 0)
(-0.569996 0.987582 0)
(-0.569907 0.987575 0)
(-0.569877 0.987572 0)
(-0.569907 0.987575 0)
(-0.569996 0.987582 0)
(-0.570141 0.987593 0)
(-0.570335 0.987609 0)
(-0.570572 0.987627 0)
(-0.570842 0.987648 0)
(-0.571136 0.987672 0)
(-0.575936 0.951074 0)
(-0.576539 0.951169 0)
(-0.577118 0.951261 0)
(-0.577652 0.951346 0)
(-0.578121 0.95142 0)
(-0.578505 0.951481 0)
(-0.57879 0.951526 0)
(-0.578966 0.951554 0)
(-0.579026 0.951563 0)
(-0.578966 0.951554 0)
(-0.57879 0.951526 0)
(-0.578505 0.951481 0)
(-0.578121 0.95142 0)
(-0.577652 0.951346 0)
(-0.577118 0.951261 0)
(-0.576539 0.951169 0)
(-0.575936 0.951074 0)
(-0.575333 0.950978 0)
(-0.574754 0.950886 0)
(-0.574219 0.950802 0)
(-0.573751 0.950728 0)
(-0.573367 0.950667 0)
(-0.573081 0.950622 0)
(-0.572906 0.950594 0)
(-0.572846 0.950584 0)
(-0.572906 0.950594 0)
(-0.573081 0.950622 0)
(-0.573367 0.950667 0)
(-0.573751 0.950728 0)
(-0.574219 0.950802 0)
(-0.574754 0.950886 0)
(-0.575333 0.950978 0)
(-0.588039 0.891032 0)
(-0.588924 0.891244 0)
(-0.589776 0.891449 0)
(-0.590561 0.891637 0)
(-0.591249 0.891802 0)
(-0.591813 0.891938 0)
(-0.592233 0.892038 0)
(-0.592491 0.8921 0)
(-0.592578 0.892121 0)
(-0.592491 0.8921 0)
(-0.592233 0.892038 0)
(-0.591813 0.891938 0)
(-0.591249 0.891802 0)
(-0.590561 0.891637 0)
(-0.589776 0.891449 0)
(-0.588924 0.891244 0)
(-0.588039 0.891032 0)
(-0.587153 0.890819 0)
(-0.586302 0.890615 0)
(-0.585517 0.890426 0)
(-0.584829 0.890261 0)
(-0.584264 0.890126 0)
(-0.583845 0.890025 0)
(-0.583587 0.889963 0)
(-0.583499 0.889942 0)
(-0.583587 0.889963 0)
(-0.583845 0.890025 0)
(-0.584264 0.890126 0)
(-0.584829 0.890261 0)
(-0.585517 0.890426 0)
(-0.586302 0.890615 0)
(-0.587153 0.890819 0)
(-0.611317 0.809055 0)
(-0.612464 0.809428 0)
(-0.613566 0.809786 0)
(-0.614582 0.810116 0)
(-0.615473 0.810405 0)
(-0.616204 0.810643 0)
(-0.616747 0.810819 0)
(-0.617082 0.810928 0)
(-0.617195 0.810965 0)
(-0.617082 0.810928 0)
(-0.616747 0.810819 0)
(-0.616204 0.810643 0)
(-0.615473 0.810405 0)
(-0.614582 0.810116 0)
(-0.613566 0.809786 0)
(-0.612464 0.809428 0)
(-0.611317 0.809055 0)
(-0.610171 0.808683 0)
(-0.609068 0.808324 0)
(-0.608052 0.807994 0)
(-0.607161 0.807705 0)
(-0.60643 0.807467 0)
(-0.605887 0.807291 0)
(-0.605553 0.807182 0)
(-0.60544 0.807146 0)
(-0.605553 0.807182 0)
(-0.605887 0.807291 0)
(-0.60643 0.807467 0)
(-0.607161 0.807705 0)
(-0.608052 0.807994 0)
(-0.609068 0.808324 0)
(-0.610171 0.808683 0)
(-0.649069 0.707152 0)
(-0.650448 0.707724 0)
(-0.651775 0.708273 0)
(-0.652997 0.708779 0)
(-0.654069 0.709223 0)
(-0.654948 0.709587 0)
(-0.655601 0.709858 0)
(-0.656004 0.710025 0)
(-0.656139 0.710081 0)
(-0.656004 0.710025 0)
(-0.655601 0.709858 0)
(-0.654948 0.709587 0)
(-0.654069 0.709223 0)
(-0.652997 0.708779 0)
(-0.651775 0.708273 0)
(-0.650448 0.707724 0)
(-0.649069 0.707152 0)
(-0.647689 0.706581 0)
(-0.646363 0.706032 0)
(-0.645141 0.705525 0)
(-0.644069 0.705082 0)
(-0.64319 0.704717 0)
(-0.642536 0.704447 0)
(-0.642134 0.70428 0)
(-0.641998 0.704224 0)
(-0.642134 0.70428 0)
(-0.642536 0.704447 0)
(-0.64319 0.704717 0)
(-0.644069 0.705082 0)
(-0.645141 0.705525 0)
(-0.646363 0.706032 0)
(-0.647689 0.706581 0)
(-0.704227 0.587845 0)
(-0.705805 0.588649 0)
(-0.707322 0.589422 0)
(-0.708721 0.590135 0)
(-0.709947 0.59076 0)
(-0.710953 0.591272 0)
(-0.711701 0.591653 0)
(-0.712161 0.591888 0)
(-0.712316 0.591967 0)
(-0.712161 0.591888 0)
(-0.711701 0.591653 0)
(-0.710953 0.591272 0)
(-0.709947 0.59076 0)
(-0.708721 0.590135 0)
(-0.707322 0.589422 0)
(-0.705805 0.588649 0)
(-0.704227 0.587845 0)
(-0.702648 0.587041 0)
(-0.701131 0.586268 0)
(-0.699732 0.585555 0)
(-0.698506 0.584931 0)
(-0.6975 0.584418 0)
(-0.696753 0.584037 0)
(-0.696292 0.583803 0)
(-0.696137 0.583724 0)
(-0.696292 0.583803 0)
(-0.696753 0.584037 0)
(-0.6975 0.584418 0)
(-0.698506 0.584931 0)
(-0.699732 0.585555 0)
(-0.701131 0.586268 0)
(-0.702648 0.587041 0)
(-0.779307 0.454056 0)
(-0.781045 0.455121 0)
(-0.782717 0.456145 0)
(-0.784257 0.457089 0)
(-0.785607 0.457917 0)
(-0.786715 0.458596 0)
(-0.787538 0.4591 0)
(-0.788045 0.459411 0)
(-0.788217 0.459516 0)
(-0.788045 0.459411 0)
(-0.787538 0.4591 0)
(-0.786715 0.458596 0)
(-0.785607 0.457917 0)
(-0.784257 0.457089 0)
(-0.782717 0.456145 0)
(-0.781045 0.455121 0)
(-0.779307 0.454056 0)
(-0.777569 0.452991 0)
(-0.775897 0.451967 0)
(-0.774357 0.451023 0)
(-0.773007 0.450196 0)
(-0.771899 0.449517 0)
(-0.771075 0.449012 0)
(-0.770568 0.448702 0)
(-0.770397 0.448597 0)
(-0.770568 0.448702 0)
(-0.771075 0.449012 0)
(-0.771899 0.449517 0)
(-0.773007 0.450196 0)
(-0.774357 0.451023 0)
(-0.775897 0.451967 0)
(-0.777569 0.452991 0)
(-0.876319 0.309096 0)
(-0.878175 0.310444 0)
(-0.879959 0.31174 0)
(-0.881603 0.312935 0)
(-0.883044 0.313982 0)
(-0.884227 0.314841 0)
(-0.885106 0.315479 0)
(-0.885647 0.315873 0)
(-0.88583 0.316005 0)
(-0.885647 0.315873 0)
(-0.885106 0.315479 0)
(-0.884227 0.314841 0)
(-0.883044 0.313982 0)
(-0.881603 0.312935 0)
(-0.879959 0.31174 0)
(-0.878175 0.310444 0)
(-0.876319 0.309096 0)
(-0.874464 0.307748 0)
(-0.87268 0.306452 0)
(-0.871036 0.305258 0)
(-0.869594 0.304211 0)
(-0.868412 0.303352 0)
(-0.867533 0.302713 0)
(-0.866992 0.30232 0)
(-0.866809 0.302187 0)
(-0.866992 0.30232 0)
(-0.867533 0.302713 0)
(-0.868412 0.303352 0)
(-0.869594 0.304211 0)
(-0.871036 0.305258 0)
(-0.87268 0.306452 0)
(-0.874464 0.307748 0)
(-0.996755 0.156516 0)
(-0.998682 0.158162 0)
(-1.00053 0.159744 0)
(-1.00224 0.161203 0)
(-1.00374 0.162481 0)
(-1.00497 0.16353 0)
(-1.00588 0.164309 0)
(-1.00644 0.164789 0)
(-1.00663 0.164951 0)
(-1.00644 0.164789 0)
(-1.00588 0.164309 0)
(-1.00497 0.16353 0)
(-1.00374 0.162481 0)
(-1.00224 0.161203 0)
(-1.00053 0.159744 0)
(-0.998682 0.158162 0)
(-0.996755 0.156516 0)
(-0.994828 0.154871 0)
(-0.992975 0.153289 0)
(-0.991267 0.15183 0)
(-0.989771 0.150552 0)
(-0.988542 0.149503 0)
(-0.98763 0.148724 0)
(-0.987068 0.148244 0)
(-0.986878 0.148082 0)
(-0.987068 0.148244 0)
(-0.98763 0.148724 0)
(-0.988542 0.149503 0)
(-0.989771 0.150552 0)
(-0.991267 0.15183 0)
(-0.992975 0.153289 0)
(-0.994828 0.154871 0)
(-1.1415 9.26536e-05 0)
(-1.14345 0.00204337 0)
(-1.14533 0.00391913 0)
(-1.14706 0.00564784 0)
(-1.14857 0.00716307 0)
(-1.14981 0.00840658 0)
(-1.15074 0.0093306 0)
(-1.15131 0.00989959 0)
(-1.1515 0.0100917 0)
(-1.15131 0.00989959 0)
(-1.15074 0.0093306 0)
(-1.14981 0.00840658 0)
(-1.14857 0.00716307 0)
(-1.14706 0.00564784 0)
(-1.14533 0.00391913 0)
(-1.14345 0.00204337 0)
(-1.1415 9.26536e-05 0)
(-1.13955 -0.00185807 0)
(-1.13767 -0.00373382 0)
(-1.13594 -0.00546253 0)
(-1.13443 -0.00697776 0)
(-1.13319 -0.00822128 0)
(-1.13226 -0.00914529 0)
(-1.13169 -0.00971429 0)
(-1.1315 -0.00990642 0)
(-1.13169 -0.00971429 0)
(-1.13226 -0.00914529 0)
(-1.13319 -0.00822128 0)
(-1.13443 -0.00697776 0)
(-1.13594 -0.00546253 0)
(-1.13767 -0.00373382 0)
(-1.13955 -0.00185807 0)
(0 0 0)
(0 0 0)
(0 0 0)
(0 0 0)
(0 0 0)
(0 0 0)
(0 0 0)
(0 0 0)
(0 0 0)
(0 0 0)
(0 0 0)
(0 0 0)
(0 0 0)
(0 0 0)
(0 0 0)
(0 0 0)
(0 0 0)
(0 0 0)
(0 0 0)
(0 0 0)
(0 0 0)
(0 0 0)
(0 0 0)
(0 0 0)
(0 0 0)
(0 0 0)
(0 0 0)
(0 0 0)
(0 0 0)
(0 0 0)
(0 0 0)
(0 0 0)
(0 0 0)
(0 0 0)
(0 0 0)
(0 0 0)
(0 0 0)
(0 0 0)
(0 0 0)
(0 0 0)
(0 0 0)
(0 0 0)
(0 0 0)
(0 0 0)
(0 0 0)
(0 0 0)
(0 0 0)
(0 0 0)
(0 0 0)
(0 0 0)
(0 0 0)
(0 0 0)
(0 0 0)
(0 0 0)
(0 0 0)
(0 0 0)
(0 0 0)
(0 0 0)
(0 0 0)
(0 0 0)
(0 0 0)
(0 0 0)
(0 0 0)
(0 0 0)
(0 0 0)
(0 0 0)
(0 0 0)
(0 0 0)
(0 0 0)
(0 0 0)
(0 0 0)
(0 0 0)
(0 0 0)
(0 0 0)
(0 0 0)
(0 0 0)
(0 0 0)
(0 0 0)
(0 0 0)
(0 0 0)
(0 0 0)
(0 0 0)
(0 0 0)
(0 0 0)
(0 0 0)
(0 0 0)
(0 0 0)
(0 0 0)
(0 0 0)
(0 0 0)
(0 0 0)
(0 0 0)
(0 0 0)
(0 0 0)
(0 0 0)
(0 0 0)
(0 0 0)
(0 0 0)
(0 0 0)
(0 0 0)
(0 0 0)
(0 0 0)
(0 0 0)
(0 0 0)
(0 0 0)
(0 0 0)
(0 0 0)
(0 0 0)
(0 0 0)
(0 0 0)
(0 0 0)
(0 0 0)
(0 0 0)
(0 0 0)
(0 0 0)
(0 0 0)
(0 0 0)
(0 0 0)
(0 0 0)
(0 0 0)
(0 0 0)
(0 0 0)
(0 0 0)
(0 0 0)
(0 0 0)
(0 0 0)
(0 0 0)
(0 0 0)
(0 0 0)
(0 0 0)
(0 0 0)
(0 0 0)
(0 0 0)
(0 0 0)
(0 0 0)
(0 0 0)
(0 0 0)
(0 0 0)
(0 0 0)
(0 0 0)
(0 0 0)
(0 0 0)
(0 0 0)
(0 0 0)
(0 0 0)
(0 0 0)
(0 0 0)
(0 0 0)
(0 0 0)
(0 0 0)
(0 0 0)
(0 0 0)
(0 0 0)
(0 0 0)
(0 0 0)
(0 0 0)
(0 0 0)
(0 0 0)
(0 0 0)
(0 0 0)
(0 0 0)
(0 0 0)
(0 0 0)
(0 0 0)
(0 0 0)
(0 0 0)
(0 0 0)
(0 0 0)
(0 0 0)
(0 0 0)
(0 0 0)
(0 0 0)
(0 0 0)
(0 0 0)
(0 0 0)
(0 0 0)
(0 0 0)
(0 0 0)
(0 0 0)
(0 0 0)
(0 0 0)
(0 0 0)
(0 0 0)
(0 0 0)
(0 0 0)
(0 0 0)
(0 0 0)
(0 0 0)
(0 0 0)
(0 0 0)
(0 0 0)
(0 0 0)
(0 0 0)
(0 0 0)
(0 0 0)
(0 0 0)
(0 0 0)
(0 0 0)
(0 0 0)
(0 0 0)
(0 0 0)
(0 0 0)
(0 0 0)
(0 0 0)
(0 0 0)
(0 0 0)
(0 0 0)
(0 0 0)
(0 0 0)
(0 0 0)
(0 0 0)
(0 0 0)
(0 0 0)
(0 0 0)
(0 0 0)
(0 0 0)
(0 0 0)
(0 0 0)
(0 0 0)
(0 0 0)
(0 0 0)
(0 0 0)
(0 0 0)
(0 0 0)
(0 0 0)
(0 0 0)
(0 0 0)
(0 0 0)
(0 0 0)
(0 0 0)
(0 0 0)
(0 0 0)
(0 0 0)
(0 0 0)
(0 0 0)
(0 0 0)
(0 0 0)
(0 0 0)
(0 0 0)
(0 0 0)
(0 0 0)
(0 0 0)
(0 0 0)
(0 0 0)
(0 0 0)
(0 0 0)
(0 0 0)
(0 0 0)
(0 0 0)
(0 0 0)
(0 0 0)
(0 0 0)
(0 0 0)
(0 0 0)
(0 0 0)
(0 0 0)
(0 0 0)
(0 0 0)
(0 0 0)
(0 0 0)
(0 0 0)
(0 0 0)
(0 0 0)
(0 0 0)
(0 0 0)
(0 0 0)
(0 0 0)
(0 0 0)
(0 0 0)
(0 0 0)
(0 0 0)
(0 0 0)
(0 0 0)
(0 0 0)
(0 0 0)
(0 0 0)
(0 0 0)
(0 0 0)
(0 0 0)
(0 0 0)
(0 0 0)
(0 0 0)
(0 0 0)
(0 0 0)
(0 0 0)
(0 0 0)
(0 0 0)
(0 0 0)
(0 0 0)
(0 0 0)
(0 0 0)
(0 0 0)
(0 0 0)
(0 0 0)
(0 0 0)
(0 0 0)
(0 0 0)
(0 0 0)
(0 0 0)
(0 0 0)
(0 0 0)
(0 0 0)
(0 0 0)
(0 0 0)
(0 0 0)
(0 0 0)
(0 0 0)
(0 0 0)
(0 0 0)
(0 0 0)
(0 0 0)
(0 0 0)
(0 0 0)
(0 0 0)
(0 0 0)
(0 0 0)
(0 0 0)
(0 0 0)
(0 0 0)
(0 0 0)
(0 0 0)
(0 0 0)
(0 0 0)
(0 0 0)
(0 0 0)
(0 0 0)
(0 0 0)
(0 0 0)
(0 0 0)
(0 0 0)
(0 0 0)
(0 0 0)
(0 0 0)
(0 0 0)
(0 0 0)
(0 0 0)
(0 0 0)
(0 0 0)
(0 0 0)
(0 0 0)
(0 0 0)
(0 0 0)
(0 0 0)
(0 0 0)
(0 0 0)
(0 0 0)
(0 0 0)
(0 0 0)
(0 0 0)
(0 0 0)
(0 0 0)
(0 0 0)
(0 0 0)
(0 0 0)
(0 0 0)
(0 0 0)
(0 0 0)
(0 0 0)
(0 0 0)
(0 0 0)
(0 0 0)
(0 0 0)
(0 0 0)
(0 0 0)
(0 0 0)
(0 0 0)
(0 0 0)
(0 0 0)
(0 0 0)
(0 0 0)
(0 0 0)
(0 0 0)
(0 0 0)
(0 0 0)
(0 0 0)
(0 0 0)
(0 0 0)
(0 0 0)
(0 0 0)
(0 0 0)
(0 0 0)
(0 0 0)
(0 0 0)
(0 0 0)
(0 0 0)
(0 0 0)
(0 0 0)
(0 0 0)
(0 0 0)
(0 0 0)
(0 0 0)
(0 0 0)
(0 0 0)
(0 0 0)
(0 0 0)
(0 0 0)
(0 0 0)
(0 0 0)
(0 0 0)
(0 0 0)
(0 0 0)
(0 0 0)
(0 0 0)
(0 0 0)
(0 0 0)
(0 0 0)
(0 0 0)
(0 0 0)
(0 0 0)
(0 0 0)
(0 0 0)
(0 0 0)
(0 0 0)
(0 0 0)
(0 0 0)
(0 0 0)
(0 0 0)
(0 0 0)
(0 0 0)
(0 0 0)
(0 0 0)
(0 0 0)
(0 0 0)
(0 0 0)
(0 0 0)
(0 0 0)
(0 0 0)
(0 0 0)
(0 0 0)
(0 0 0)
(0 0 0)
(0 0 0)
(0 0 0)
(0 0 0)
(0 0 0)
(0 0 0)
(0 0 0)
(0 0 0)
(0 0 0)
(0 0 0)
(0 0 0)
(0 0 0)
(0 0 0)
(0 0 0)
(0 0 0)
(0 0 0)
(0 0 0)
(0 0 0)
(0 0 0)
(0 0 0)
(0 0 0)
(0 0 0)
(0 0 0)
(0 0 0)
(0 0 0)
(0 0 0)
(0 0 0)
(0 0 0)
(0 0 0)
(0 0 0)
(0 0 0)
(0 0 0)
(0 0 0)
(0 0 0)
(0 0 0)
(0 0 0)
(0 0 0)
(0 0 0)
(0 0 0)
(0 0 0)
(0 0 0)
(0 0 0)
(0 0 0)
(0 0 0)
(0 0 0)
(0 0 0)
(0 0 0)
(0 0 0)
(0 0 0)
(0 0 0)
(0 0 0)
(0 0 0)
(0 0 0)
(0 0 0)
(0 0 0)
(0 0 0)
(0 0 0)
(0 0 0)
(0 0 0)
(0 0 0)
(0 0 0)
(0 0 0)
(0 0 0)
(0 0 0)
(0 0 0)
(0 0 0)
(0 0 0)
(0 0 0)
(0 0 0)
(0 0 0)
(0 0 0)
(0 0 0)
(0 0 0)
(0 0 0)
(0 0 0)
(0 0 0)
(0 0 0)
(0 0 0)
(0 0 0)
(0 0 0)
(0 0 0)
(0 0 0)
(0 0 0)
(0 0 0)
(0 0 0)
(0 0 0)
(0 0 0)
(0 0 0)
(0 0 0)
(0 0 0)
(0 0 0)
(0 0 0)
(0 0 0)
(0 0 0)
(0 0 0)
(0 0 0)
(0 0 0)
(0 0 0)
(0 0 0)
(0 0 0)
(0 0 0)
(0 0 0)
(0 0 0)
(0 0 0)
(0 0 0)
(0 0 0)
(0 0 0)
(0 0 0)
(0 0 0)
(0 0 0)
(0 0 0)
(0 0 0)
(0 0 0)
(0 0 0)
(0 0 0)
(0 0 0)
(0 0 0)
(0 0 0)
(0 0 0)
(0 0 0)
(0 0 0)
(0 0 0)
(0 0 0)
(0 0 0)
(0 0 0)
(0 0 0)
(0 0 0)
(0 0 0)
(0 0 0)
(0 0 0)
(0 0 0)
(0 0 0)
(0 0 0)
(0 0 0)
(0 0 0)
(0 0 0)
(0 0 0)
(0 0 0)
(0 0 0)
(0 0 0)
(0 0 0)
(0 0 0)
(0 0 0)
(0 0 0)
(0 0 0)
(0 0 0)
(0 0 0)
(0 0 0)
(0 0 0)
(0 0 0)
(0 0 0)
(0 0 0)
(0 0 0)
(0 0 0)
(0 0 0)
(0 0 0)
(0 0 0)
(0 0 0)
(0 0 0)
(0 0 0)
(0 0 0)
(0 0 0)
(0 0 0)
(0 0 0)
(0 0 0)
(0 0 0)
(0 0 0)
(0 0 0)
(0 0 0)
(0 0 0)
(0 0 0)
(0 0 0)
(0 0 0)
(0 0 0)
(0 0 0)
(0 0 0)
(0 0 0)
(0 0 0)
(0 0 0)
(0 0 0)
(0 0 0)
(0 0 0)
(0 0 0)
(0 0 0)
(0 0 0)
(0 0 0)
(0 0 0)
(0 0 0)
(0 0 0)
(0 0 0)
(0 0 0)
(0 0 0)
(0 0 0)
(0 0 0)
(0 0 0)
(0 0 0)
(0 0 0)
(0 0 0)
(0 0 0)
(0 0 0)
(0 0 0)
(0 0 0)
(0 0 0)
(0 0 0)
(0 0 0)
(0 0 0)
(0 0 0)
(0 0 0)
(0 0 0)
(0 0 0)
(0 0 0)
(0 0 0)
(0 0 0)
(0 0 0)
(0 0 0)
(0 0 0)
(0 0 0)
(0 0 0)
(0 0 0)
(0 0 0)
(0 0 0)
(0 0 0)
(0 0 0)
(0 0 0)
(0 0 0)
(0 0 0)
(0 0 0)
(0 0 0)
(0 0 0)
(0 0 0)
(0 0 0)
(0 0 0)
(0 0 0)
(0 0 0)
(0 0 0)
(0 0 0)
(0 0 0)
(0 0 0)
(0 0 0)
(0 0 0)
(0 0 0)
(0 0 0)
)
;

boundaryField
{
    left_0
    {
        type            calculated;
    }
    left_1
    {
        type            calculated;
    }
    right_0
    {
        type            calculated;
    }
    right_1
    {
        type            calculated;
    }
    beam
    {
        type            empty;
    }
}


// ************************************************************************* //
