/*--------------------------------*- C++ -*----------------------------------*\
| =========                 |                                                 |
| \\      /  F ield         | foam-extend: Open Source CFD                    |
|  \\    /   O peration     | Version:     4.1                                |
|   \\  /    A nd           | Web:         http://www.foam-extend.org         |
|    \\/     M anipulation  |                                                 |
\*---------------------------------------------------------------------------*/
FoamFile
{
    version     2.0;
    format      ascii;
    class       volTensorField;
    location    "0";
    object      refRM;
}
// * * * * * * * * * * * * * * * * * * * * * * * * * * * * * * * * * * * * * //

dimensions      [0 0 0 0 0 0 0];

internalField   nonuniform List<tensor> 
40
(
(0.0784568 -0.996918 0 0.996918 0.0784568 0 0 0 1)
(0.233439 -0.972372 0 0.972372 0.233439 0 0 0 1)
(0.382673 -0.923884 0 0.923884 0.382673 0 0 0 1)
(0.522485 -0.852649 0 0.852649 0.522485 0 0 0 1)
(0.649432 -0.76042 0 0.76042 0.649432 0 0 0 1)
(0.760389 -0.649467 0 0.649467 0.760389 0 0 0 1)
(0.852626 -0.522522 0 0.522522 0.852626 0 0 0 1)
(0.923867 -0.382713 0 0.382713 0.923867 0 0 0 1)
(0.972361 -0.233481 0 0.233481 0.972361 0 0 0 1)
(0.996914 -0.0785005 0 0.0785005 0.996914 0 0 0 1)
(0.996921 0.0784131 0 -0.0784131 0.996921 0 0 0 1)
(0.972382 0.233396 0 -0.233396 0.972382 0 0 0 1)
(0.923901 0.382632 0 -0.382632 0.923901 0 0 0 1)
(0.852672 0.522447 0 -0.522447 0.852672 0 0 0 1)
(0.760448 0.649399 0 -0.649399 0.760448 0 0 0 1)
(0.649501 0.760361 0 -0.760361 0.649501 0 0 0 1)
(0.522562 0.852602 0 -0.852602 0.522562 0 0 0 1)
(0.382756 0.923849 0 -0.923849 0.382756 0 0 0 1)
(0.233526 0.97235 0 -0.97235 0.233526 0 0 0 1)
(1 0 0 0 1 0 0 0 1)
(1 0 0 0 1 0 0 0 1)
(1 0 0 0 1 0 0 0 1)
(1 0 0 0 1 0 0 0 1)
(1 0 0 0 1 0 0 0 1)
(1 0 0 0 1 0 0 0 1)
(1 0 0 0 1 0 0 0 1)
(1 0 0 0 1 0 0 0 1)
(1 0 0 0 1 0 0 0 1)
(1 0 0 0 1 0 0 0 1)
(1 0 0 0 1 0 0 0 1)
(1 0 0 0 1 0 0 0 1)
(1 0 0 0 1 0 0 0 1)
(1 0 0 0 1 0 0 0 1)
(1 0 0 0 1 0 0 0 1)
(1 0 0 0 1 0 0 0 1)
(1 0 0 0 1 0 0 0 1)
(1 0 0 0 1 0 0 0 1)
(1 0 0 0 1 0 0 0 1)
(1 0 0 0 1 0 0 0 1)
(0.841471 -0.540302 0 0.540302 0.841471 0 0 0 1)
)
;

boundaryField
{
    left_0
    {
        type            calculated;
        value           uniform (6.12323e-17 -1 0 1 6.12323e-17 0 0 0 1);
    }
    left_1
    {
        type            calculated;
        value           uniform (1 0 0 0 1 0 0 0 1);
    }
    right_0
    {
        type            calculated;
        value           uniform (9.26536e-05 1 0 -1 9.26536e-05 0 0 0 1);
    }
    right_1
    {
        type            calculated;
        value           uniform (1 0 0 0 1 0 0 0 1);
    }
    beam
    {
        type            empty;
    }
}


// ************************************************************************* //
