/*--------------------------------*- C++ -*----------------------------------*\
| =========                 |                                                 |
| \\      /  F ield         | foam-extend: Open Source CFD                    |
|  \\    /   O peration     | Version:     4.1                                |
|   \\  /    A nd           | Web:         http://www.foam-extend.org         |
|    \\/     M anipulation  |                                                 |
\*---------------------------------------------------------------------------*/
FoamFile
{
    version     2.0;
    format      ascii;
    class       surfaceVectorField;
    location    "0";
    object      refTangent;
}
// * * * * * * * * * * * * * * * * * * * * * * * * * * * * * * * * * * * * * //

dimensions      [0 0 0 0 0 0 0];

internalField   nonuniform List<vector> 
38
(
(0.15643 0.987689 0)
(0.309008 0.951059 0)
(0.453978 0.891013 0)
(0.58777 0.809028 0)
(0.70709 0.707123 0)
(0.809001 0.587808 0)
(0.890994 0.454015 0)
(0.951045 0.309052 0)
(0.987683 0.156471 0)
(1 4.63268e-05 0)
(0.987696 -0.156389 0)
(0.951074 -0.308964 0)
(0.891032 -0.453941 0)
(0.809055 -0.587733 0)
(0.707152 -0.707061 0)
(0.587845 -0.808973 0)
(0.454056 -0.890973 0)
(0.309096 -0.951031 0)
(0.156516 -0.987675 0)
(1 0 0)
(1 0 0)
(1 0 0)
(1 0 0)
(1 0 0)
(1 0 0)
(1 0 0)
(1 0 0)
(1 0 0)
(1 0 0)
(1 0 0)
(1 0 0)
(1 0 0)
(1 0 0)
(1 0 0)
(1 0 0)
(1 0 0)
(1 0 0)
(1 0 0)
)
;

boundaryField
{
    left_0
    {
        type            calculated;
        value           uniform (6.12323e-17 1 0);
    }
    left_1
    {
        type            calculated;
        value           uniform (1 0 0);
    }
    right_0
    {
        type            calculated;
        value           uniform (9.26536e-05 -1 0);
    }
    right_1
    {
        type            calculated;
        value           uniform (1 0 0);
    }
    beam
    {
        type            empty;
    }
}


// ************************************************************************* //
