/*--------------------------------*- C++ -*----------------------------------*\
| =========                 |                                                 |
| \\      /  F ield         | foam-extend: Open Source CFD                    |
|  \\    /   O peration     | Version:     4.1                                |
|   \\  /    A nd           | Web:         http://www.foam-extend.org         |
|    \\/     M anipulation  |                                                 |
\*---------------------------------------------------------------------------*/
FoamFile
{
    version     2.0;
    format      ascii;
    class       volVectorField;
    location    "0";
    object      refW;
}
// * * * * * * * * * * * * * * * * * * * * * * * * * * * * * * * * * * * * * //

dimensions      [0 1 0 0 0 0 0];

internalField   nonuniform List<vector> 
40
(
(-0.075455 0.0784568 0)
(-0.207984 0.233439 0)
(-0.316571 0.382673 0)
(-0.402411 0.522485 0)
(-0.467257 0.649432 0)
(-0.51338 0.760389 0)
(-0.543512 0.852626 0)
(-0.560778 0.923867 0)
(-0.568621 0.972361 0)
(-0.570715 0.996914 0)
(-0.570877 0.996921 0)
(-0.572969 0.972382 0)
(-0.580808 0.923901 0)
(-0.598068 0.852672 0)
(-0.628191 0.760448 0)
(-0.674304 0.649501 0)
(-0.739138 0.522562 0)
(-0.824966 0.382756 0)
(-0.93354 0.233526 0)
(0 0 0)
(0 0 0)
(0 0 0)
(0 0 0)
(0 0 0)
(0 0 0)
(0 0 0)
(0 0 0)
(0 0 0)
(0 0 0)
(0 0 0)
(0 0 0)
(0 0 0)
(0 0 0)
(0 0 0)
(0 0 0)
(0 0 0)
(0 0 0)
(0 0 0)
(0 0 0)
(-0.540302 0.841471 0)
)
;

boundaryField
{
    left_0
    {
        type            calculated;
        value           uniform (0 0 0);
    }
    left_1
    {
        type            calculated;
        value           uniform (0 0 0);
    }
    right_0
    {
        type            calculated;
        value           uniform (0 0 0);
    }
    right_1
    {
        type            calculated;
        value           uniform (0 0 0);
    }
    beam
    {
        type            empty;
    }
}


// ************************************************************************* //
