/*--------------------------------*- C++ -*----------------------------------*\
| =========                 |                                                 |
| \\      /  F ield         | foam-extend: Open Source CFD                    |
|  \\    /   O peration     | Version:     4.1                                |
|   \\  /    A nd           | Web:         http://www.foam-extend.org         |
|    \\/     M anipulation  |                                                 |
\*---------------------------------------------------------------------------*/
FoamFile
{
    version     2.0;
    format      ascii;
    class       surfaceVectorField;
    location    "0";
    object      refWf;
}
// * * * * * * * * * * * * * * * * * * * * * * * * * * * * * * * * * * * * * //

dimensions      [0 1 0 0 0 0 0];

internalField   nonuniform List<vector> 
38
(
(-0.144764 0.15643 0)
(-0.265209 0.309008 0)
(-0.362238 0.453978 0)
(-0.437328 0.58777 0)
(-0.492498 0.70709 0)
(-0.530258 0.809001 0)
(-0.553545 0.890994 0)
(-0.565652 0.951045 0)
(-0.570151 0.987683 0)
(-0.570796 1 0)
(-0.571441 0.987696 0)
(-0.575936 0.951074 0)
(-0.588039 0.891032 0)
(-0.611317 0.809055 0)
(-0.649069 0.707152 0)
(-0.704227 0.587845 0)
(-0.779307 0.454056 0)
(-0.876319 0.309096 0)
(-0.996755 0.156516 0)
(0 0 0)
(0 0 0)
(0 0 0)
(0 0 0)
(0 0 0)
(0 0 0)
(0 0 0)
(0 0 0)
(0 0 0)
(0 0 0)
(0 0 0)
(0 0 0)
(0 0 0)
(0 0 0)
(0 0 0)
(0 0 0)
(0 0 0)
(0 0 0)
(0 0 0)
)
;

boundaryField
{
    left_0
    {
        type            calculated;
        value           uniform (-1.4122e-35 1.4122e-35 0);
    }
    left_1
    {
        type            calculated;
        value           uniform (0 0 0);
    }
    right_0
    {
        type            calculated;
        value           uniform (-1.1415 9.26536e-05 0);
    }
    right_1
    {
        type            calculated;
        value           uniform (0 0 0);
    }
    beam
    {
        type            empty;
    }
}


// ************************************************************************* //
