/*--------------------------------*- C++ -*----------------------------------*\
| =========                 |                                                 |
| \\      /  F ield         | OpenFOAM: The Open Source CFD Toolbox           |
|  \\    /   O peration     | Version:  2312                                  |
|   \\  /    A nd           | Website:  www.openfoam.com                      |
|    \\/     M anipulation  |                                                 |
\*---------------------------------------------------------------------------*/
FoamFile
{
    version     2.0;
    format      ascii;
    arch        "LSB;label=32;scalar=64";
    class       volScalarField;
    location    "0.04";
    object      p;
}
// * * * * * * * * * * * * * * * * * * * * * * * * * * * * * * * * * * * * * //

dimensions      [1 -1 -2 0 0 0 0];

internalField   nonuniform List<scalar> 
299556
(
19.37475258
19.37475774
19.37476294
19.37476819
19.37477351
19.37477893
19.37478445
19.3747901
19.37479591
19.37480189
19.37480806
19.37481444
19.37482105
19.37482791
19.37483504
19.37484245
19.37485017
19.37485821
19.37486659
19.37487532
19.37488441
19.37489388
19.37490374
19.37491399
19.37492465
19.37493571
19.37494717
19.37495904
19.37497131
19.37498397
19.37499701
19.3750104
19.37502412
19.37503815
19.37505246
19.37506701
19.37508174
19.37509662
19.37511159
19.37512659
19.37514154
19.37515639
19.37517105
19.37518544
19.37519948
19.37521308
19.37522615
19.3752386
19.37525033
19.37526125
19.37527127
19.37528031
19.37528828
19.37529509
19.37530069
19.375305
19.37530796
19.37530953
19.37530967
19.37530835
19.37530555
19.37530126
19.37529549
19.37528825
19.37527957
19.37526947
19.375258
19.37524521
19.37523116
19.3752159
19.37519951
19.37518205
19.37516359
19.37514422
19.375124
19.375103
19.37508131
19.37505898
19.37503609
19.3750127
19.37498888
19.37496466
19.37494012
19.3749153
19.37489025
19.374865
19.3748396
19.37481408
19.37478849
19.37476284
19.3747577
19.37477315
19.37478869
19.37480439
19.37482029
19.37483647
19.37485298
19.37486989
19.37488724
19.37490511
19.37492355
19.37494263
19.37496239
19.3749829
19.37500421
19.37502638
19.37504945
19.37507349
19.37509853
19.37512462
19.37515181
19.37518012
19.37520959
19.37524024
19.3752721
19.37530516
19.37533944
19.37537493
19.37541161
19.37544946
19.37548843
19.37552846
19.3755695
19.37561146
19.37565423
19.37569772
19.37574178
19.37578627
19.37583103
19.37587587
19.37592059
19.37596499
19.37600883
19.37605187
19.37609385
19.37613452
19.37617361
19.37621083
19.37624591
19.37627857
19.37630855
19.37633558
19.37635941
19.37637981
19.37639655
19.37640943
19.3764183
19.376423
19.37642342
19.37641947
19.37641109
19.37639827
19.37638102
19.37635938
19.37633341
19.37630321
19.37626892
19.37623068
19.37618865
19.37614303
19.37609401
19.37604179
19.37598661
19.37592867
19.37586821
19.37580543
19.37574056
19.37567381
19.37560537
19.37553543
19.37546419
19.3753918
19.37531843
19.37524422
19.37516931
19.37509382
19.37501788
19.37494159
19.37486506
19.37478838
19.37476278
19.37478841
19.3748142
19.37484025
19.37486664
19.37489348
19.37492088
19.37494893
19.37497773
19.37500738
19.37503799
19.37506964
19.37510243
19.37513646
19.37517182
19.37520861
19.3752469
19.37528679
19.37532834
19.37537164
19.37541675
19.37546373
19.37551263
19.3755635
19.37561636
19.37567124
19.37572813
19.37578703
19.3758479
19.37591071
19.37597538
19.37604183
19.37610994
19.37617957
19.37625057
19.37632275
19.37639589
19.37646974
19.37654403
19.37661846
19.3766927
19.37676639
19.37683917
19.37691061
19.37698032
19.37704783
19.37711272
19.37717451
19.37723276
19.37728699
19.37733677
19.37738165
19.37742122
19.37745509
19.37748289
19.37750429
19.37751902
19.37752683
19.37752753
19.37752098
19.37750708
19.37748581
19.37745717
19.37742124
19.37737813
19.37732801
19.37727108
19.3772076
19.37713783
19.3770621
19.37698072
19.37689405
19.37680244
19.37670627
19.37660591
19.37650171
19.37639403
19.37628323
19.37616963
19.37605356
19.37593531
19.37581516
19.37569339
19.37557022
19.3754459
19.37532062
19.37519458
19.37506797
19.37494095
19.3748137
19.37476777
19.37480344
19.37483932
19.37487555
19.37491227
19.37494961
19.37498773
19.37502675
19.37506682
19.37510807
19.37515065
19.37519468
19.37524031
19.37528765
19.37533685
19.37538803
19.3754413
19.37549679
19.37555461
19.37561485
19.37567762
19.37574298
19.37581102
19.3758818
19.37595535
19.37603171
19.37611087
19.37619282
19.37627753
19.37636493
19.37645492
19.37654739
19.37664217
19.37673908
19.37683789
19.37693834
19.37704013
19.37714291
19.37724631
19.37734991
19.37745325
19.37755583
19.37765713
19.37775659
19.37785363
19.37794762
19.37803796
19.37812399
19.37820509
19.37828061
19.37834992
19.37841242
19.37846752
19.37851468
19.3785534
19.37858322
19.37860374
19.37861462
19.37861561
19.3786065
19.37858717
19.37855756
19.3785177
19.37846769
19.37840768
19.37833791
19.37825867
19.3781703
19.37807319
19.37796776
19.37785448
19.37773384
19.37760633
19.37747248
19.37733278
19.37718774
19.37703788
19.37688367
19.37672557
19.37656402
19.37639946
19.37623226
19.37606279
19.37589139
19.37571838
19.37554404
19.37536866
19.37519247
19.37501572
19.37483864
19.37477266
19.37481814
19.37486389
19.37491008
19.3749569
19.37500452
19.37505312
19.37510287
19.37515396
19.37520657
19.37526085
19.375317
19.37537517
19.37543554
19.37549828
19.37556353
19.37563147
19.37570223
19.37577595
19.37585277
19.37593281
19.37601616
19.37610294
19.37619319
19.37628699
19.37638437
19.37648533
19.37658985
19.37669789
19.37680935
19.37692414
19.37704207
19.37716297
19.37728659
19.37741263
19.37754078
19.37767063
19.37780175
19.37793367
19.37806585
19.3781977
19.37832859
19.37845785
19.37858477
19.3787086
19.37882856
19.37894384
19.37905365
19.37915716
19.37925355
19.37934203
19.37942181
19.37949216
19.37955237
19.37960181
19.37963989
19.3796661
19.37968002
19.37968131
19.3796697
19.37964504
19.37960727
19.37955642
19.37949261
19.37941605
19.37932702
19.37922591
19.37911315
19.37898923
19.37885471
19.37871017
19.37855624
19.37839355
19.37822276
19.37804453
19.3778595
19.37766831
19.37747157
19.37726988
19.37706381
19.37685389
19.3766406
19.37642444
19.37620581
19.37598513
19.37576277
19.37553906
19.37531434
19.37508891
19.37486305
19.37477741
19.37483242
19.37488776
19.37494363
19.37500026
19.37505786
19.37511664
19.37517682
19.37523862
19.37530225
19.37536791
19.37543583
19.3755062
19.37557922
19.37565511
19.37573405
19.37581623
19.37590182
19.37599101
19.37608394
19.37618076
19.3762816
19.37638658
19.37649577
19.37660926
19.37672707
19.37684922
19.37697568
19.3771064
19.37724128
19.37738017
19.37752288
19.37766918
19.37781878
19.37797132
19.37812641
19.37828357
19.37844228
19.37860196
19.37876196
19.37892157
19.37908002
19.37923652
19.37939018
19.37954011
19.37968536
19.37982496
19.37995794
19.38008329
19.38020004
19.3803072
19.38040384
19.38048906
19.38056201
19.38062191
19.38066805
19.38069983
19.38071672
19.38071831
19.38070429
19.38067446
19.38062875
19.3805672
19.38048995
19.38039726
19.38028949
19.38016708
19.38003056
19.37988054
19.37971768
19.37954271
19.37935636
19.37915942
19.37895268
19.37873694
19.37851297
19.37828155
19.37804344
19.37779933
19.37754993
19.37729587
19.37703776
19.37677617
19.3765116
19.37624456
19.37597548
19.37570479
19.37543287
19.37516008
19.37488679
19.37478199
19.37484619
19.37491077
19.37497598
19.37504208
19.3751093
19.37517791
19.37524815
19.37532028
19.37539454
19.37547118
19.37555045
19.37563258
19.37571781
19.37580639
19.37589853
19.37599444
19.37609436
19.37619846
19.37630693
19.37641995
19.37653767
19.37666021
19.37678768
19.37692016
19.3770577
19.37720031
19.37734795
19.37750057
19.37765805
19.37782023
19.37798687
19.37815771
19.3783324
19.37851055
19.37869167
19.37887522
19.37906059
19.37924711
19.379434
19.37962045
19.37980557
19.37998841
19.38016794
19.38034313
19.38051286
19.380676
19.3808314
19.38097791
19.38111436
19.38123963
19.3813526
19.38145223
19.38153753
19.38160758
19.38166155
19.38169873
19.38171852
19.38172042
19.38170407
19.38166926
19.38161588
19.38154398
19.38145374
19.38134546
19.38121955
19.38107653
19.38091704
19.38074177
19.38055151
19.38034709
19.3801294
19.37989934
19.37965784
19.37940582
19.37914422
19.37887392
19.37859581
19.37831072
19.37801945
19.37772275
19.37742134
19.37711585
19.37680692
19.37649509
19.3761809
19.37586482
19.37554732
19.37522882
19.37490972
19.37478638
19.37485938
19.37493281
19.37500695
19.3750821
19.37515853
19.37523654
19.37531641
19.37539843
19.37548287
19.37557001
19.37566014
19.37575354
19.37585046
19.37595118
19.37605595
19.37616502
19.37627864
19.37639702
19.37652038
19.37664892
19.37678279
19.37692215
19.37706713
19.37721781
19.37737424
19.37753644
19.37770438
19.37787799
19.37805713
19.37824161
19.37843119
19.37862555
19.37882431
19.379027
19.37923308
19.37944195
19.37965291
19.37986516
19.38007787
19.38029009
19.3805008
19.38070892
19.38091331
19.38111275
19.38130599
19.38149175
19.38166871
19.38183555
19.38199096
19.38213363
19.38226231
19.38237581
19.38247299
19.38255281
19.38261433
19.38265672
19.38267931
19.38268153
19.38266297
19.38262337
19.38256264
19.38248082
19.38237811
19.38225486
19.38211153
19.38194873
19.38176718
19.38156767
19.3813511
19.38111842
19.38087064
19.38060879
19.38033393
19.38004711
19.3797494
19.3794418
19.37912533
19.37880092
19.3784695
19.37813192
19.37778897
19.37744142
19.37708995
19.37673519
19.37637776
19.37601819
19.37565701
19.37529468
19.37493169
19.37479054
19.37487188
19.37495371
19.37503633
19.37512008
19.37520525
19.37529219
19.37538119
19.37547259
19.37556668
19.3756638
19.37576424
19.37586832
19.37597634
19.37608858
19.37620535
19.37632691
19.37645354
19.37658548
19.37672297
19.37686623
19.37701545
19.37717079
19.37733238
19.37750034
19.37767472
19.37785554
19.37804276
19.37823631
19.37843603
19.37864172
19.3788531
19.37906982
19.37929145
19.37951748
19.37974732
19.37998026
19.38021555
19.38045231
19.38068958
19.38092632
19.3811614
19.3813936
19.38162165
19.3818442
19.38205986
19.38226717
19.38246468
19.38265091
19.38282438
19.38298366
19.38312734
19.38325407
19.38336259
19.38345174
19.38352047
19.38356786
19.38359313
19.38359568
19.38357502
19.38353089
19.38346317
19.3833719
19.38325733
19.38311982
19.38295991
19.38277828
19.38257572
19.38235313
19.3821115
19.38185192
19.38157549
19.38128338
19.38097677
19.38065683
19.38032475
19.37998167
19.3796287
19.3792669
19.37889729
19.37852083
19.3781384
19.37775085
19.37735894
19.37696339
19.37656485
19.37616395
19.37576124
19.37535728
19.37495257
19.37479445
19.37488364
19.37497336
19.37506396
19.37515578
19.37524917
19.37534449
19.37544208
19.3755423
19.37564548
19.37575197
19.37586211
19.37597623
19.37609467
19.37621776
19.3763458
19.37647911
19.37661797
19.37676266
19.37691344
19.37707055
19.3772342
19.37740457
19.37758181
19.37776603
19.37795729
19.37815563
19.378361
19.37857331
19.37879241
19.37901806
19.37924997
19.37948775
19.37973093
19.37997895
19.38023116
19.3804868
19.38074502
19.38100488
19.38126531
19.38152518
19.38178324
19.38203817
19.38228855
19.38253292
19.38276972
19.38299739
19.3832143
19.38341885
19.3836094
19.38378438
19.38394222
19.38408147
19.38420073
19.38429872
19.38437427
19.3844264
19.38445423
19.3844571
19.38443448
19.38438608
19.38431177
19.38421161
19.38408584
19.38393488
19.38375933
19.38355993
19.38333755
19.38309318
19.38282793
19.38254296
19.38223951
19.38191886
19.38158231
19.38123115
19.38086667
19.38049014
19.38010277
19.37970574
19.37930015
19.37888705
19.37846743
19.37804221
19.37761221
19.37717823
19.376741
19.37630117
19.37585938
19.37541621
19.37497222
19.37479808
19.37489457
19.37499164
19.37508964
19.37518898
19.37529002
19.37539314
19.37549872
19.37560713
19.37571876
19.37583396
19.37595312
19.37607659
19.37620474
19.37633791
19.37647644
19.37662067
19.37677092
19.37692747
19.37709062
19.37726062
19.3774377
19.37762205
19.37781385
19.3780132
19.37822019
19.37843484
19.37865711
19.3788869
19.37912404
19.37936829
19.37961933
19.37987673
19.38013999
19.38040851
19.38068158
19.38095837
19.38123799
19.38151938
19.38180143
19.38208288
19.38236239
19.38263853
19.38290977
19.3831745
19.38343107
19.38367775
19.3839128
19.38413447
19.38434099
19.38453064
19.38470175
19.38485271
19.38498202
19.38508828
19.38517024
19.3852268
19.38525705
19.38526024
19.38523581
19.38518344
19.38510299
19.38499452
19.3848583
19.3846948
19.38450465
19.38428866
19.38404777
19.38378308
19.38349576
19.3831871
19.38285844
19.38251116
19.38214667
19.38176638
19.38137169
19.38096396
19.38054451
19.38011462
19.37967549
19.37922825
19.37877397
19.37831363
19.37784815
19.37737837
19.37690508
19.376429
19.37595079
19.3754711
19.37499053
19.37480142
19.37490462
19.37500842
19.37511324
19.37521948
19.37532753
19.37543782
19.37555074
19.37566669
19.37578607
19.37590929
19.37603673
19.37616879
19.37630585
19.37644828
19.37659645
19.37675072
19.37691143
19.37707889
19.3772534
19.37743525
19.37762467
19.37782189
19.37802706
19.37824033
19.37846178
19.37869142
19.37892923
19.3791751
19.37942885
19.37969021
19.37995884
19.38023431
19.38051605
19.38080344
19.38109571
19.381392
19.38169131
19.38199255
19.38229451
19.38259585
19.38289514
19.38319084
19.3834813
19.38376483
19.38403963
19.38430386
19.38455565
19.38479313
19.38501439
19.38521761
19.38540096
19.38556275
19.38570135
19.38581526
19.38590315
19.38596383
19.38599632
19.38599982
19.38597374
19.38591772
19.38583161
19.38571549
19.38556965
19.38539458
19.38519097
19.38495968
19.38470173
19.38441829
19.38411064
19.38378014
19.38342824
19.38305641
19.38266618
19.38225905
19.38183651
19.38140005
19.38095106
19.38049092
19.3800209
19.37954223
19.37905604
19.37856338
19.37806524
19.37756252
19.37705605
19.3765466
19.37603489
19.3755216
19.37500738
19.37480445
19.37491371
19.37502362
19.3751346
19.37524708
19.37536149
19.37547827
19.37559782
19.3757206
19.375847
19.37597747
19.37611241
19.37625225
19.37639737
19.37654819
19.3767051
19.37686846
19.37703863
19.37721597
19.37740077
19.37759335
19.37779396
19.37800282
19.37822012
19.37844599
19.37868054
19.37892378
19.37917567
19.37943611
19.3797049
19.37998178
19.38026637
19.38055821
19.38085672
19.38116123
19.38147092
19.38178489
19.38210208
19.38242134
19.38274138
19.38306079
19.38337803
19.3836915
19.38399944
19.38430004
19.38459141
19.3848716
19.38513862
19.38539047
19.38562516
19.38584071
19.38603522
19.38620687
19.38635393
19.38647482
19.38656811
19.38663255
19.38666709
19.38667089
19.38664332
19.38658399
19.38649276
19.38636969
19.38621511
19.38602953
19.38581369
19.3855685
19.38529506
19.3849946
19.38466847
19.38431813
19.38394512
19.383551
19.38313739
19.38270589
19.38225809
19.38179554
19.38131974
19.38083214
19.3803341
19.37982692
19.37931178
19.37878982
19.37826206
19.37772946
19.37719291
19.37665321
19.37611113
19.37556738
19.37502265
19.37480713
19.37492179
19.37503713
19.37515359
19.37527162
19.37539168
19.37551422
19.37563969
19.37576852
19.37590118
19.37603809
19.3761797
19.37632644
19.37647875
19.37663703
19.37680169
19.37697314
19.37715174
19.37733785
19.37753181
19.37773394
19.37794449
19.37816371
19.3783918
19.37862889
19.37887509
19.37913043
19.37939485
19.37966826
19.37995046
19.38024114
19.38053995
19.38084637
19.38115982
19.38147957
19.38180479
19.38213451
19.38246765
19.38280297
19.38313912
19.38347464
19.38380791
19.38413722
19.38446075
19.3847766
19.38508276
19.3853772
19.38565782
19.38592251
19.38616918
19.38639576
19.38660024
19.3867807
19.38693533
19.38706246
19.3871606
19.38722841
19.3872648
19.38726888
19.38723999
19.38717772
19.38708191
19.38695266
19.38679028
19.38659533
19.38636857
19.38611099
19.38582372
19.38550807
19.38516546
19.38479743
19.38440559
19.3839916
19.38355714
19.38310391
19.38263358
19.38214778
19.38164809
19.38113603
19.38061302
19.38008043
19.37953951
19.37899144
19.37843731
19.37787811
19.37731477
19.37674814
19.37617901
19.37560814
19.37503624
19.37480947
19.37492881
19.37504886
19.37517008
19.37529295
19.37541792
19.37554547
19.37567606
19.37581017
19.37594825
19.37609077
19.37623817
19.37639092
19.37654946
19.37671423
19.37688564
19.37706411
19.37725003
19.37744378
19.3776457
19.37785612
19.37807532
19.37830355
19.37854102
19.37878787
19.37904421
19.37931007
19.3795854
19.37987009
19.38016394
19.38046665
19.38077782
19.38109694
19.38142338
19.38175641
19.38209515
19.3824386
19.38278561
19.38313493
19.38348513
19.38383468
19.38418191
19.38452504
19.38486217
19.3851913
19.38551037
19.38581724
19.38610972
19.38638563
19.38664276
19.38687897
19.38709215
19.38728031
19.38744156
19.38757415
19.38767651
19.38774728
19.38778529
19.38778963
19.38775959
19.38769476
19.38759498
19.38746033
19.38729116
19.38708804
19.38685177
19.38658338
19.38628406
19.38595517
19.38559819
19.38521474
19.38480649
19.38437518
19.38392256
19.3834504
19.38296044
19.38245439
19.38193389
19.38140052
19.38085577
19.38030106
19.3797377
19.37916691
19.37858981
19.37800746
19.3774208
19.37683073
19.37623808
19.37564361
19.37504807
19.37481144
19.37493473
19.37505876
19.37518399
19.37531092
19.37544004
19.37557181
19.37570673
19.37584528
19.37598793
19.37613517
19.37628747
19.37644528
19.37660908
19.37677931
19.37695641
19.37714081
19.37733291
19.37753309
19.37774173
19.37795914
19.37818564
19.37842147
19.37866685
19.37892193
19.37918683
19.37946156
19.37974609
19.38004031
19.38034399
19.38065685
19.38097845
19.38130829
19.38164571
19.38198995
19.38234011
19.38269514
19.38305389
19.38341502
19.38377709
19.38413851
19.38449754
19.38485235
19.38520098
19.38554135
19.38587134
19.38618872
19.38649124
19.38677663
19.38704262
19.38728698
19.38750754
19.38770222
19.38786906
19.38800628
19.38811224
19.38818551
19.3882249
19.38822946
19.38819846
19.38813148
19.38802834
19.38788913
19.38771421
19.38750419
19.38725988
19.38698236
19.38667284
19.38633275
19.38596364
19.38556715
19.38514503
19.38469907
19.3842311
19.38374295
19.38323641
19.38271325
19.38217517
19.3816238
19.3810607
19.38048731
19.37990499
19.37931501
19.37871854
19.37811663
19.3775103
19.37690045
19.37628793
19.37567355
19.37505806
19.37481303
19.37493952
19.37506675
19.37519523
19.37532544
19.3754579
19.37559308
19.3757315
19.37587363
19.37601998
19.37617104
19.37632728
19.37648918
19.37665723
19.37683187
19.37701357
19.37720275
19.37739984
19.37760522
19.37781928
19.37804235
19.37827474
19.37851671
19.37876849
19.37903022
19.37930202
19.37958393
19.3798759
19.38017781
19.38048945
19.38081051
19.38114055
19.38147905
19.38182535
19.38217866
19.38253805
19.38290246
19.38327069
19.38364139
19.38401307
19.38438408
19.38475267
19.38511694
19.38547487
19.38582435
19.38616317
19.38648907
19.38679972
19.3870928
19.38736596
19.38761693
19.38784346
19.38804343
19.38821482
19.38835579
19.38846466
19.38853997
19.38858048
19.38858522
19.38855346
19.38848473
19.38837887
19.38823598
19.38805642
19.3878408
19.38758999
19.38730506
19.3869873
19.38663815
19.3862592
19.38585216
19.38541882
19.38496101
19.38448062
19.38397952
19.38345956
19.38292256
19.38237026
19.38180434
19.38122638
19.38063789
19.38004025
19.37943475
19.3788226
19.3782049
19.37758265
19.3769568
19.37632823
19.37569774
19.37506613
19.37481423
19.37494313
19.37507279
19.37520371
19.37533641
19.37547139
19.37560915
19.37575021
19.37589505
19.3760442
19.37619813
19.37635735
19.37652235
19.3766936
19.37687159
19.37705675
19.37724955
19.37745041
19.37765972
19.37787788
19.37810523
19.37834207
19.37858868
19.37884528
19.37911205
19.37938907
19.3796764
19.379974
19.38028173
19.38059938
19.38092663
19.38126306
19.38160812
19.38196113
19.38232129
19.38268767
19.38305918
19.38343458
19.38381252
19.38419146
19.38456974
19.38494556
19.38531699
19.38568197
19.38603834
19.38638385
19.3867162
19.38703301
19.38733191
19.38761051
19.38786648
19.38809755
19.38830152
19.38847636
19.38862017
19.38873125
19.3888081
19.38884947
19.38885436
19.38882201
19.38875196
19.38864405
19.38849837
19.38831529
19.38809544
19.3878397
19.38754918
19.38722517
19.38686916
19.38648277
19.38606774
19.3856259
19.38515913
19.38466934
19.38415844
19.38362834
19.38308086
19.3825178
19.38194087
19.38135168
19.38075176
19.38014252
19.37952529
19.37890129
19.37827163
19.37763736
19.37699942
19.3763587
19.37571604
19.37507223
19.37481503
19.37494555
19.37507683
19.3752094
19.37534376
19.37548043
19.37561992
19.37576274
19.37590941
19.37606042
19.37621629
19.37637751
19.37654458
19.37671798
19.3768982
19.37708569
19.37728092
19.3774843
19.37769625
19.37791715
19.37814736
19.37838719
19.37863691
19.37889676
19.37916689
19.37944742
19.37973838
19.38003975
19.38035138
19.38067306
19.38100448
19.38134518
19.38169463
19.38205215
19.38241691
19.38278797
19.38316424
19.38354446
19.38392725
19.38431107
19.38469423
19.3850749
19.38545113
19.38582084
19.38618183
19.38653184
19.38686852
19.38718946
19.38749227
19.38777453
19.38803386
19.38826796
19.38847463
19.38865178
19.38879751
19.38891007
19.38898796
19.38902991
19.38903489
19.38900215
19.38893122
19.38882193
19.38867438
19.38848894
19.38826625
19.3880072
19.38771292
19.38738473
19.38702411
19.38663273
19.38621234
19.3857648
19.38529201
19.38479591
19.38427844
19.38374152
19.38318702
19.38261675
19.38203243
19.3814357
19.38082812
19.38021111
19.37958601
19.37895406
19.37831639
19.37767404
19.37702799
19.37637913
19.37572831
19.37507632
19.37481544
19.37494676
19.37507886
19.37521225
19.37534745
19.37548497
19.37562532
19.37576903
19.37591661
19.37606856
19.3762254
19.37638762
19.37655573
19.37673021
19.37691155
19.37710021
19.37729665
19.3775013
19.37771457
19.37793685
19.3781685
19.37840982
19.37866111
19.37892257
19.3791944
19.37947668
19.37976947
19.38007273
19.38038632
19.38071002
19.38104352
19.38138638
19.38173803
19.38209781
19.38246488
19.38283829
19.38321694
19.38359958
19.38398481
19.38437108
19.38475668
19.38513979
19.38551843
19.38589051
19.38625383
19.3866061
19.38694495
19.38726797
19.38757274
19.38785683
19.38811785
19.38835348
19.3885615
19.38873982
19.3888865
19.38899981
19.38907822
19.38912046
19.38912549
19.38909255
19.38902119
19.38891121
19.38876271
19.38857608
19.38835197
19.38809127
19.3877951
19.3874648
19.38710187
19.38670798
19.3862849
19.3858345
19.38535869
19.38485942
19.38433866
19.38379832
19.38324029
19.38266639
19.38207837
19.38147786
19.38086643
19.38024552
19.37961647
19.37898053
19.37833884
19.37769245
19.37704233
19.37638939
19.37573447
19.37507838
19.37481544
19.37494676
19.37507886
19.37521225
19.37534745
19.37548497
19.37562532
19.37576903
19.37591661
19.37606856
19.3762254
19.37638762
19.37655573
19.37673021
19.37691155
19.37710021
19.37729665
19.3775013
19.37771457
19.37793685
19.3781685
19.37840982
19.37866111
19.37892257
19.3791944
19.37947668
19.37976947
19.38007273
19.38038632
19.38071002
19.38104352
19.38138638
19.38173803
19.38209781
19.38246488
19.38283829
19.38321694
19.38359958
19.38398481
19.38437108
19.38475668
19.38513979
19.38551843
19.38589051
19.38625383
19.3866061
19.38694495
19.38726797
19.38757274
19.38785683
19.38811785
19.38835348
19.3885615
19.38873982
19.3888865
19.38899981
19.38907822
19.38912046
19.38912549
19.38909255
19.38902119
19.38891121
19.38876271
19.38857609
19.38835197
19.38809127
19.3877951
19.3874648
19.38710187
19.38670798
19.3862849
19.3858345
19.38535869
19.38485942
19.38433866
19.38379832
19.38324029
19.38266639
19.38207837
19.38147786
19.38086643
19.38024552
19.37961647
19.37898053
19.37833884
19.37769245
19.37704233
19.37638939
19.37573447
19.37507838
19.37481503
19.37494555
19.37507683
19.3752094
19.37534376
19.37548043
19.37561992
19.37576274
19.37590941
19.37606042
19.37621629
19.37637751
19.37654458
19.37671798
19.3768982
19.37708569
19.37728092
19.3774843
19.37769625
19.37791715
19.37814736
19.37838719
19.37863691
19.37889675
19.37916689
19.37944742
19.37973838
19.38003974
19.38035138
19.38067306
19.38100448
19.38134518
19.38169463
19.38205215
19.38241691
19.38278797
19.38316424
19.38354446
19.38392725
19.38431107
19.38469423
19.3850749
19.38545113
19.38582084
19.38618183
19.38653184
19.38686852
19.38718947
19.38749227
19.38777453
19.38803386
19.38826796
19.38847463
19.38865179
19.38879751
19.38891007
19.38898796
19.38902991
19.38903489
19.38900215
19.38893123
19.38882194
19.38867438
19.38848894
19.38826625
19.38800721
19.38771292
19.38738473
19.38702411
19.38663273
19.38621234
19.3857648
19.38529201
19.38479591
19.38427844
19.38374152
19.38318702
19.38261675
19.38203243
19.3814357
19.38082812
19.38021111
19.37958601
19.37895406
19.37831639
19.37767404
19.37702799
19.37637913
19.37572831
19.37507632
19.37481423
19.37494313
19.37507279
19.37520371
19.37533641
19.37547139
19.37560915
19.37575021
19.37589505
19.3760442
19.37619813
19.37635735
19.37652235
19.3766936
19.37687159
19.37705675
19.37724955
19.37745041
19.37765972
19.37787788
19.37810522
19.37834207
19.37858868
19.37884528
19.37911204
19.37938907
19.3796764
19.37997399
19.38028173
19.38059938
19.38092663
19.38126306
19.38160812
19.38196113
19.38232129
19.38268767
19.38305917
19.38343458
19.38381252
19.38419146
19.38456974
19.38494556
19.38531699
19.38568197
19.38603834
19.38638385
19.3867162
19.38703301
19.38733191
19.38761052
19.38786649
19.38809755
19.38830153
19.38847636
19.38862018
19.38873126
19.38880811
19.38884948
19.38885436
19.38882201
19.38875197
19.38864406
19.38849838
19.38831529
19.38809544
19.3878397
19.38754918
19.38722517
19.38686916
19.38648277
19.38606774
19.3856259
19.38515913
19.38466934
19.38415844
19.38362833
19.38308086
19.3825178
19.38194087
19.38135168
19.38075176
19.38014252
19.37952529
19.37890129
19.37827163
19.37763736
19.37699942
19.3763587
19.37571604
19.37507223
19.37481303
19.37493952
19.37506675
19.37519523
19.37532544
19.37545789
19.37559308
19.3757315
19.37587363
19.37601998
19.37617104
19.37632728
19.37648918
19.37665723
19.37683187
19.37701357
19.37720275
19.37739984
19.37760522
19.37781928
19.37804235
19.37827474
19.37851671
19.37876848
19.37903022
19.37930202
19.37958393
19.3798759
19.38017781
19.38048945
19.38081051
19.38114055
19.38147905
19.38182535
19.38217866
19.38253805
19.38290246
19.38327069
19.38364139
19.38401307
19.38438408
19.38475267
19.38511694
19.38547487
19.38582435
19.38616317
19.38648907
19.38679972
19.3870928
19.38736597
19.38761693
19.38784347
19.38804343
19.38821483
19.3883558
19.38846467
19.38853997
19.38858049
19.38858523
19.38855346
19.38848474
19.38837888
19.38823599
19.38805642
19.3878408
19.38758999
19.38730507
19.3869873
19.38663815
19.3862592
19.38585216
19.38541882
19.38496101
19.38448062
19.38397952
19.38345956
19.38292256
19.38237026
19.38180434
19.38122638
19.38063789
19.38004025
19.37943475
19.3788226
19.3782049
19.37758265
19.3769568
19.37632823
19.37569774
19.37506613
19.37481144
19.37493473
19.37505876
19.37518399
19.37531092
19.37544003
19.37557181
19.37570673
19.37584528
19.37598793
19.37613517
19.37628747
19.37644528
19.37660908
19.37677931
19.37695641
19.37714081
19.3773329
19.37753309
19.37774173
19.37795914
19.37818564
19.37842147
19.37866685
19.37892193
19.37918682
19.37946156
19.37974609
19.38004031
19.38034399
19.38065685
19.38097845
19.38130829
19.38164571
19.38198995
19.38234011
19.38269514
19.38305389
19.38341502
19.38377709
19.38413851
19.38449754
19.38485235
19.38520098
19.38554135
19.38587134
19.38618872
19.38649124
19.38677663
19.38704262
19.38728698
19.38750754
19.38770222
19.38786907
19.38800629
19.38811224
19.38818551
19.38822491
19.38822946
19.38819847
19.38813148
19.38802834
19.38788914
19.38771422
19.38750419
19.38725989
19.38698236
19.38667285
19.38633276
19.38596364
19.38556715
19.38514503
19.38469907
19.3842311
19.38374295
19.38323641
19.38271325
19.38217517
19.3816238
19.3810607
19.38048731
19.37990499
19.37931501
19.37871854
19.37811663
19.3775103
19.37690045
19.37628793
19.37567355
19.37505806
19.37480947
19.37492881
19.37504886
19.37517008
19.37529295
19.37541792
19.37554547
19.37567606
19.37581017
19.37594825
19.37609076
19.37623817
19.37639092
19.37654946
19.37671423
19.37688564
19.37706411
19.37725003
19.37744378
19.3776457
19.37785612
19.37807532
19.37830355
19.37854102
19.37878787
19.37904421
19.37931007
19.3795854
19.37987009
19.38016394
19.38046665
19.38077782
19.38109693
19.38142338
19.38175641
19.38209515
19.3824386
19.38278561
19.38313492
19.38348513
19.38383468
19.38418191
19.38452504
19.38486217
19.3851913
19.38551037
19.38581724
19.38610972
19.38638563
19.38664276
19.38687897
19.38709216
19.38728032
19.38744156
19.38757415
19.38767652
19.38774729
19.3877853
19.38778963
19.3877596
19.38769477
19.38759499
19.38746034
19.38729116
19.38708804
19.38685178
19.38658339
19.38628406
19.38595517
19.38559819
19.38521474
19.38480649
19.38437518
19.38392256
19.3834504
19.38296044
19.38245439
19.38193389
19.38140052
19.38085577
19.38030106
19.3797377
19.37916691
19.37858981
19.37800746
19.3774208
19.37683073
19.37623808
19.37564361
19.37504807
19.37480713
19.37492179
19.37503712
19.37515358
19.37527162
19.37539168
19.37551422
19.37563969
19.37576852
19.37590117
19.37603809
19.3761797
19.37632644
19.37647875
19.37663703
19.37680169
19.37697313
19.37715173
19.37733785
19.37753181
19.37773393
19.37794449
19.37816371
19.37839179
19.37862889
19.37887509
19.37913042
19.37939485
19.37966826
19.37995045
19.38024114
19.38053994
19.38084637
19.38115981
19.38147957
19.38180479
19.38213451
19.38246765
19.38280297
19.38313912
19.38347464
19.38380791
19.38413722
19.38446075
19.3847766
19.38508276
19.3853772
19.38565782
19.38592251
19.38616919
19.38639577
19.38660025
19.38678071
19.38693534
19.38706247
19.3871606
19.38722842
19.38726481
19.38726889
19.38723999
19.38717773
19.38708192
19.38695267
19.38679029
19.38659533
19.38636858
19.38611099
19.38582372
19.38550807
19.38516546
19.38479743
19.38440559
19.3839916
19.38355714
19.38310391
19.38263358
19.38214778
19.38164809
19.38113603
19.38061302
19.38008043
19.37953951
19.37899144
19.37843731
19.37787811
19.37731476
19.37674813
19.37617901
19.37560814
19.37503624
19.37480445
19.37491371
19.37502362
19.3751346
19.37524708
19.37536149
19.37547827
19.37559782
19.3757206
19.375847
19.37597747
19.37611241
19.37625224
19.37639737
19.37654819