/*--------------------------------*- C++ -*----------------------------------*\
| =========                 |                                                 |
| \\      /  F ield         | OpenFOAM: The Open Source CFD Toolbox           |
|  \\    /   O peration     | Version:  2312                                  |
|   \\  /    A nd           | Website:  www.openfoam.com                      |
|    \\/     M anipulation  |                                                 |
\*---------------------------------------------------------------------------*/
FoamFile
{
    version     2.0;
    format      ascii;
    arch        "LSB;label=32;scalar=64";
    class       volScalarField;
    location    "0.22";
    object      p;
}
// * * * * * * * * * * * * * * * * * * * * * * * * * * * * * * * * * * * * * //

dimensions      [1 -1 -2 0 0 0 0];

internalField   nonuniform List<scalar> 
299556
(
19.37475561
19.3747669
19.37477827
19.37478979
19.37480152
19.37481352
19.37482586
19.3748386
19.3748518
19.37486552
19.37487983
19.3748948
19.3749105
19.374927
19.37494435
19.37496265
19.37498195
19.37500233
19.37502386
19.37504661
19.37507064
19.37509604
19.37512286
19.37515117
19.37518103
19.37521248
19.37524557
19.37528035
19.37531684
19.37535506
19.37539501
19.37543668
19.37548005
19.37552507
19.37557168
19.37561977
19.37566925
19.37571998
19.37577177
19.37582445
19.37587778
19.37593151
19.37598535
19.37603899
19.37609209
19.37614428
19.37619519
19.3762444
19.3762915
19.37633606
19.37637766
19.37641589
19.37645034
19.37648061
19.37650636
19.37652726
19.37654303
19.37655342
19.37655826
19.3765574
19.37655078
19.37653838
19.37652025
19.37649647
19.37646721
19.37643266
19.37639306
19.3763487
19.37629988
19.37624694
19.37619023
19.37613009
19.3760669
19.37600101
19.37593275
19.37586246
19.37579044
19.37571698
19.37564233
19.37556673
19.37549037
19.37541343
19.37533606
19.37525836
19.37518044
19.37510237
19.37502419
19.37494593
19.37486761
19.37478923
19.37476677
19.37480048
19.37483446
19.37486888
19.37490394
19.3749398
19.37497667
19.37501472
19.37505415
19.37509516
19.37513793
19.37518267
19.37522957
19.37527886
19.37533073
19.37538539
19.37544307
19.37550396
19.3755683
19.37563628
19.37570811
19.37578401
19.37586417
19.37594877
19.37603799
19.37613199
19.37623091
19.37633485
19.37644392
19.37655815
19.37667757
19.37680214
19.37693179
19.37706638
19.37720572
19.37734952
19.37749747
19.37764914
19.37780403
19.37796156
19.37812106
19.37828175
19.3784428
19.37860326
19.37876211
19.37891826
19.37907057
19.37921781
19.37935874
19.3794921
19.37961662
19.37973104
19.37983414
19.37992477
19.38000186
19.38006443
19.38011164
19.38014277
19.38015727
19.38015474
19.38013494
19.38009785
19.3800436
19.37997246
19.37988491
19.37978153
19.37966305
19.37953032
19.37938426
19.37922587
19.37905619
19.3788763
19.37868728
19.37849017
19.37828601
19.37807578
19.37786039
19.3776407
19.37741747
19.3771914
19.37696309
19.37673305
19.37650171
19.37626944
19.37603649
19.3758031
19.3755694
19.37533549
19.37510142
19.37486719
19.37477782
19.37483376
19.37489013
19.37494725
19.37500541
19.37506492
19.3751261
19.37518924
19.37525467
19.3753227
19.37539367
19.37546791
19.37554574
19.37562752
19.37571359
19.3758043
19.37590001
19.37600106
19.37610781
19.37622062
19.37633984
19.37646579
19.37659882
19.37673922
19.3768873
19.37704331
19.37720748
19.37738001
19.37756104
19.37775066
19.37794889
19.37815569
19.37837093
19.37859437
19.3788257
19.37906448
19.37931014
19.379562
19.37981923
19.38008086
19.38034576
19.38061268
19.38088019
19.38114675
19.38141067
19.38167012
19.38192319
19.38216787
19.38240209
19.38262373
19.38283069
19.38302088
19.38319228
19.38334296
19.38347113
19.38357518
19.38365369
19.38370548
19.38372964
19.38372547
19.38369261
19.38363101
19.38354086
19.38342267
19.38327718
19.38310539
19.38290852
19.38268796
19.38244527
19.38218209
19.38190019
19.38160132
19.38128729
19.38095986
19.38062074
19.38027154
19.37991381
19.37954896
19.37917825
19.37880285
19.37842374
19.37804178
19.37765769
19.37727205
19.37688534
19.37649788
19.37610994
19.37572167
19.37533316
19.37494445
19.37478871
19.37486652
19.37494494
19.3750244
19.37510531
19.37518811
19.37527321
19.37536105
19.37545208
19.37554673
19.37564547
19.37574874
19.37585704
19.37597081
19.37609056
19.37621677
19.37634993
19.37649053
19.37663907
19.37679604
19.37696192
19.37713719
19.3773223
19.37751768
19.37772375
19.37794087
19.37816936
19.37840949
19.37866146
19.3789254
19.37920135
19.37948924
19.37978889
19.3801
19.38042211
19.38075461
19.38109672
19.38144749
19.38180577
19.38217021
19.38253925
19.38291113
19.38328388
19.38365534
19.38402314
19.38438477
19.38473753
19.38507864
19.38540519
19.38571425
19.38600286
19.38626811
19.38650717
19.38671737
19.38689619
19.38704138
19.38715096
19.38722328
19.38725707
19.38725134
19.3872056
19.38711977
19.38699413
19.38682939
19.38662658
19.38638711
19.38611268
19.38580523
19.38546694
19.38510013
19.38470723
19.38429072
19.38385312
19.38339687
19.38292437
19.38243789
19.38193955
19.38143133
19.38091501
19.38039218
19.37986423
19.37933235
19.37879755
19.37826063
19.37772223
19.37718284
19.3766428
19.37610234
19.37556158
19.3750206
19.37479935
19.37489856
19.37499855
19.37509986
19.37520303
19.3753086
19.37541711
19.37552912
19.37564518
19.37576587
19.37589177
19.37602347
19.37616155
19.37630664
19.37645934
19.37662029
19.37679009
19.3769694
19.37715884
19.37735903
19.37757059
19.37779414
19.37803024
19.37827947
19.37854233
19.37881929
19.37911079
19.37941715
19.37973864
19.38007542
19.38042755
19.38079494
19.38117738
19.38157447
19.38198563
19.38241011
19.3828469
19.3832948
19.38375233
19.38421777
19.38468915
19.38516422
19.38564045
19.3861151
19.38658513
19.38704733
19.38749827
19.38793436
19.3883519
19.38874712
19.38911624
19.38945553
19.38976137
19.39003031
19.39025915
19.390445
19.3905853
19.39067796
19.39072132
19.39071414
19.39065577
19.39054613
19.39038557
19.39017499
19.38991575
19.38960963
19.38925881
19.38886581
19.38843341
19.38796458
19.38746245
19.3869302
19.38637104
19.38578812
19.38518449
19.38456307
19.38392658
19.38327753
19.38261821
19.38195065
19.38127661
19.38059762
19.37991496
19.37922965
19.37854251
19.37785415
19.37716501
19.37647537
19.37578541
19.37509521
19.37480969
19.37492969
19.37505063
19.37517317
19.37529797
19.37542566
19.37555691
19.3756924
19.37583279
19.37597878
19.37613108
19.37629039
19.37645743
19.37663294
19.37681768
19.37701238
19.37721782
19.37743475
19.37766395
19.37790616
19.37816215
19.37843265
19.37871836
19.37901995
19.37933807
19.37967328
19.38002609
19.38039693
19.3807861
19.38119383
19.38162016
19.38206503
19.38252815
19.38300906
19.38350707
19.38402127
19.38455045
19.38509315
19.38564759
19.38621171
19.3867831
19.38735903
19.38793648
19.38851208
19.38908218
19.38964286
19.39018996
19.39071914
19.39122588
19.39170561
19.39215373
19.39256571
19.39293713
19.3932638
19.39354181
19.39376765
19.39393821
19.39405092
19.39410379
19.39409528
19.39402463
19.3938917
19.39369697
19.39344151
19.39312698
19.39275556
19.39232993
19.39185313
19.39132855
19.39075983
19.39015077
19.38950525
19.38882717
19.38812037
19.38738855
19.38663525
19.38586379
19.38507721
19.38427828
19.38346946
19.38265289
19.38183042
19.38100358
19.38017362
19.37934152
19.378508
19.3776736
19.37683866
19.37600338
19.37516787
19.37481966
19.37495971
19.37510086
19.37524389
19.37538953
19.37553857
19.37569176
19.37584989
19.37601376
19.37618416
19.37636192
19.37654787
19.37674285
19.37694773
19.37716337
19.37739065
19.37763048
19.37788373
19.37815131
19.3784341
19.37873299
19.37904883
19.37938245
19.37973464
19.38010615
19.38049765
19.38090973
19.3813429
19.38179753
19.38227387
19.38277201
19.38329185
19.38383308
19.38439517
19.38497733
19.38557848
19.38619723
19.38683188
19.38748036
19.38814026
19.38880877
19.38948271
19.39015853
19.39083231
19.39149977
19.39215632
19.39279708
19.39341695
19.39401066
19.39457282
19.39509803
19.39558097
19.39601645
19.39639954
19.39672564
19.39699062
19.39719083
19.39732323
19.39738549
19.3973758
19.39729327
19.39713773
19.39690975
19.39661059
19.39624222
19.39580721
19.3953087
19.39475029
19.39413597
19.39347002
19.39275692
19.39200121
19.3912075
19.39038027
19.3895239
19.38864252
19.38774002
19.38681996
19.3858856
19.3849398
19.38398507
19.38302357
19.38205707
19.38108703
19.38011458
19.37914057
19.3781656
19.37719008
19.37621422
19.37523814
19.37482921
19.37498844
19.37514894
19.37531156
19.37547717
19.37564663
19.37582082
19.37600063
19.37618696
19.37638073
19.37658287
19.37679433
19.37701606
19.37724905
19.37749429
19.37775278
19.37802554
19.37831359
19.37861794
19.37893961
19.3792796
19.37963889
19.38001844
19.38041914
19.38084185
19.38128734
19.38175628
19.38224927
19.38276673
19.38330896
19.38387606
19.38446793
19.38508424
19.38572438
19.38638747
19.38707228
19.38777725
19.38850046
19.38923954
19.38999177
19.39075394
19.39152246
19.39229325
19.39306186
19.39382341
19.39457266
19.39530404
19.39601171
19.39668964
19.39733167
19.39793164
19.39848342
19.39898107
19.39941896
19.39979181
19.40009486
19.40032394
19.40047557
19.40054706
19.40053635
19.40044241
19.40026506
19.40000495
19.39966353
19.39924307
19.39874653
19.39817751
19.39754016
19.39683905
19.39607909
19.39526541
19.39440325
19.39349784
19.39255437
19.3915778
19.39057288
19.38954404
19.38849537
19.38743055
19.38635287
19.38526518
19.38416991
19.3830691
19.38196439
19.38085706
19.37974806
19.37863807
19.37752752
19.37641667
19.37530561
19.37483826
19.37501571
19.37519456
19.37537578
19.37556034
19.37574918
19.3759433
19.37614369
19.37635135
19.3765673
19.37679258
19.37702825
19.37727538
19.37753506
19.37780841
19.37809653
19.37840057
19.37872167
19.37906095
19.37941956
19.37979861
19.38019921
19.38062241
19.38106924
19.38154064
19.38203748
19.38256053
19.38311045
19.38368773
19.3842927
19.38492549
19.38558601
19.38627388
19.38698846
19.38772875
19.38849343
19.38928074
19.39008854
19.39091424
19.39175476
19.39260656
19.39346561
19.39432739
19.39518689
19.39603868
19.39687687
19.39769525
19.39848726
19.39924616
19.39996502
19.40063692
19.40125499
19.40181256
19.40230327
19.40272122
19.40306104
19.40331805
19.40348832
19.40356882
19.40355726
19.40345245
19.40325423
19.4029633
19.40258133
19.40211086
19.40155523
19.40091851
19.40020537
19.39942095
19.39857079
19.39766065
19.39669641
19.39568398
19.39462914
19.39353749
19.39241434
19.39126467
19.39009303
19.38890355
19.3876999
19.38648526
19.38526234
19.38403341
19.38280028
19.38156436
19.38032672
19.37908807
19.37784891
19.37660947
19.37536987
19.37484678
19.37504134
19.37523745
19.37543616
19.37563852
19.37584559
19.37605845
19.37627818
19.37650589
19.37674269
19.37698974
19.37724818
19.3775192
19.37780399
19.37810377
19.37841978
19.37875325
19.37910544
19.3794776
19.37987097
19.3802868
19.38072629
19.38119061
19.38168088
19.38219816
19.3827434
19.38331745
19.38392105
19.38455475
19.38521892
19.38591372
19.38663905
19.38739452
19.38817944
19.38899273
19.38983293
19.39069816
19.39158606
19.39249379
19.39341799
19.39435479
19.39529974
19.39624789
19.39719373
19.39813128
19.39905408
19.39995524
19.40082758
19.40166361
19.40245572
19.40319624
19.40387759
19.40449238
19.40503359
19.40549468
19.40586971
19.40615348
19.40634166
19.4064309
19.40641864
19.40630359
19.40608556
19.40576534
19.40534479
19.40482673
19.40421487
19.40351373
19.40272846
19.40186479
19.40092884
19.399927
19.39886577
19.39775167
19.39659111
19.39539026
19.39415499
19.39289076
19.39160262
19.3902951
19.38897222
19.38763748
19.38629386
19.38494382
19.38358934
19.38223197
19.38087285
19.37951275
19.37815218
19.3767914
19.3754305
19.3748547
19.37506518
19.37527734
19.37549231
19.37571124
19.37593526
19.37616555
19.37640328
19.37664964
19.37690584
19.37717313
19.37745276
19.37774601
19.37805416
19.37837855
19.37872051
19.37908138
19.37946252
19.37986529
19.38029105
19.38074113
19.38121685
19.38171948
19.38225024
19.38281028
19.38340065
19.38402228
19.38467596
19.38536231
19.38608174
19.38683445
19.38762034
19.38843899
19.38928968
19.39017125
19.39108214
19.39202032
19.39298325
19.39396788
19.39497056
19.39598711
19.39701271
19.398042
19.39906901
19.40008723
19.40108965
19.40206879
19.40301681
19.40392558
19.40478679
19.4055921
19.40633322
19.40700211
19.40759109
19.40809301
19.40850139
19.40881057
19.40901579
19.40911339
19.40910059
19.40897598
19.40873936
19.4083916
19.40793473
19.40737185
19.40670702
19.40594519
19.40509201
19.40415373
19.40313704
19.40204892
19.40089648
19.39968683
19.39842695
19.39712356
19.39578306
19.39441139
19.39301402
19.39159589
19.39016134
19.38871418
19.38725761
19.38579429
19.38432637
19.38285548
19.38138285
19.3799093
19.37843535
19.37696126
19.37548711
19.37486197
19.37508708
19.37531398
19.3755439
19.37577804
19.37601764
19.37626394
19.3765182
19.3767817
19.37705573
19.37734163
19.37764073
19.3779544
19.37828403
19.37863104
19.37899685
19.37938291
19.37979067
19.3802216
19.38067714
19.38115873
19.38166779
19.38220568
19.38277372
19.38337313
19.38400506
19.38467051
19.38537034
19.38610522
19.38687562
19.38768174
19.3885235
19.38940049
19.39031191
19.39125657
19.3922328
19.39323844
19.39427081
19.39532661
19.39640199
19.39749245
19.39859285
19.39969742
19.40079979
19.40189295
19.40296938
19.40402104
19.4050395
19.40601601
19.40694162
19.40780733
19.40860422
19.4093236
19.40995721
19.4104973
19.4109369
19.41126988
19.4114911
19.41159661
19.41158342
19.41145
19.41119613
19.41082278
19.41033215
19.40972757
19.40901348
19.40819519
19.40727885
19.40627119
19.40517946
19.40401117
19.40277402
19.40147566
19.40012361
19.39872513
19.39728708
19.39581587
19.39431737
19.39279686
19.39125902
19.38970791
19.38814696
19.386579
19.38500631
19.38343064
19.38185326
19.38027504
19.3786965
19.3771179
19.37553931
19.37486855
19.37510691
19.37534715
19.37559059
19.37583851
19.37609221
19.376353
19.37662223
19.37690125
19.37719143
19.37749417
19.3778109
19.37814307
19.37849215
19.37885965
19.37924707
19.37965595
19.38008784
19.38054428
19.38102681
19.38153697
19.38207625
19.38264612
19.38324797
19.3838831
19.38455275
19.38525798
19.38599971
19.38677868
19.38759537
19.38845004
19.3893426
19.39027263
19.39123932
19.3922414
19.39327714
19.39434426
19.39543991
19.39656064
19.39770236
19.39886029
19.40002902
19.40120242
19.4023737
19.40353545
19.40467964
19.40579775
19.40688078
19.40791942
19.40890414
19.40982532
19.41067346
19.41143928
19.41211393
19.41268918
19.41315755
19.41351248
19.4137485
19.41386138
19.41384793
19.4137065
19.41343688
19.41304011
19.41251854
19.41187577
19.41111652
19.41024651
19.40927229
19.40820109
19.40704064
19.40579898
19.40448431
19.40310482
19.40166853
19.40018317
19.39865604
19.39709398
19.39550321
19.39388936
19.39225739
19.39061158
19.38895558
19.38729238
19.38562438
19.3839534
19.38228077
19.3806074
19.37893381
19.37726024
19.37558674
19.37487441
19.37512453
19.37537664
19.37563211
19.37589227
19.37615851
19.37643219
19.37671473
19.37700754
19.37731208
19.3776298
19.37796222
19.37831084
19.37867723
19.37906295
19.3794696
19.37989879
19.38035214
19.38083128
19.38133785
19.38187344
19.38243964
19.38303798
19.38366995
19.38433691
19.38504017
19.38578086
19.38655995
19.38737823
19.38823624
19.38913423
19.39007214
19.39104955
19.39206561
19.39311903
19.39420797
19.39533008
19.39648238
19.39766125
19.39886239
19.40008082
19.40131082
19.40254597
19.40377913
19.40500248
19.40620759
19.40738545
19.40852659
19.40962116
19.41065912
19.4116303
19.41252465
19.41333237
19.41404409
19.4146511
19.41514547
19.41552028
19.41576973
19.41588933
19.41587572
19.41572715
19.41544341
19.4150256
19.41447622
19.4137991
19.41299923
19.41208269
19.41105643
19.40992809
19.40870587
19.40739828
19.406014
19.40456168
19.40304979
19.4014865
19.39987952
19.39823605
19.39656264
19.39486523
19.39314902
19.39141852
19.38967755
19.38792923
19.38617607
19.38441996
19.3826623
19.38090398
19.37914556
19.37738724
19.37562906
19.3748795
19.37513985
19.37540227
19.37566818
19.37593899
19.37621612
19.37650101
19.37679512
19.37709993
19.37741694
19.37774769
19.37809373
19.37845667
19.37883809
19.37923966
19.37966303
19.38010988
19.3805819
19.3810808
19.38160827
19.38216599
19.38275561
19.38337874
19.38403692
19.3847316
19.38546413
19.38623571
19.38704736
19.3878999
19.38879392
19.38972969
19.39070717
19.39172592
19.39278509
19.39388333
19.39501876
19.39618893
19.39739076
19.39862048
19.39987363
19.40114502
19.4024287
19.40371797
19.40500538
19.40628278
19.40754136
19.40877169
19.40996388
19.41110764
19.41219242
19.4132076
19.41414264
19.41498726
19.41573165
19.41636666
19.41688399
19.41727637
19.4175377
19.41766329
19.41764959
19.4174948
19.41719869
19.41676241
19.41618862
19.41548132
19.41464579
19.41368838
19.41261641
19.41143791
19.41016147
19.40879603
19.40735068
19.4058345
19.40425635
19.40262479
19.40094788
19.39923314
19.39748744
19.39571694
19.39392709
19.39212259
19.39030739
19.38848475
19.38665725
19.38482686
19.38299501
19.3811626
19.37933019
19.37749798
19.37566595
19.37488379
19.37515276
19.37542388
19.3756986
19.37597838
19.3762647
19.37655903
19.37686289
19.37717781
19.37750535
19.37784708
19.37820462
19.37857962
19.37897373
19.37938867
19.37982614
19.38028789
19.38077566
19.38129123
19.38183634
19.38241274
19.38302213
19.38366619
19.3843465
19.38506459
19.38582185
19.38661952
19.38745868
19.38834019
19.38926465
19.39023237
19.39124332
19.39229706
19.39339271
19.3945289
19.39570371
19.39691461
19.39815841
19.39943126
19.40072853
19.40204487
19.40337413
19.40470937
19.40604288
19.40736624
19.40867029
19.40994528
19.41118093
19.41236657
19.41349125
19.41454394
19.41551368
19.41638979
19.41716207
19.41782101
19.41835796
19.41876536
19.41903687
19.41916761
19.4191539
19.41899385
19.41868723
19.41823526
19.41764069
19.41690771
19.41604181
19.41504962
19.41393875
19.41271757
19.41139501
19.40998038
19.40848312
19.40691266
19.40527823
19.40358869
19.40185243
19.40007722
19.3982702
19.39643775
19.39458549
19.39271828
19.39084022
19.38895465
19.38706424
19.38517099
19.38327637
19.3813813
19.37948631
19.37759161
19.37569715
19.37488725
19.37516319
19.37544133
19.37572316
19.3760102
19.37630393
19.37660589
19.37691763
19.37724072
19.37757675
19.37792736
19.37829419
19.37867893
19.37908329
19.37950903
19.37995789
19.38043168
19.38093219
19.38146122
19.38202059
19.38261209
19.38323747
19.38389844
19.38459666
19.38533368
19.38611094
19.38692972
19.38779115
19.3886961
19.38964521
19.3906388
19.39167686
19.39275894
19.39388415
19.39505111
19.39625785
19.39750178
19.39877965
19.40008749
19.40142059
19.40277344
19.40413972
19.40551233
19.40688333
19.40824407
19.40958512
19.41089646
19.41216751
19.41338727
19.41454447
19.41562774
19.41662578
19.41752759
19.41832263
19.4190011
19.41955408
19.41997376
19.42025361
19.42038859
19.4203749
19.42021059
19.41989543
19.41943069
19.41881922
19.41806533
19.41717471
19.4161542
19.41501167
19.41375574
19.41239566
19.410941
19.40940152
19.40778693
19.40610675
19.4043701
19.40258562
19.40076132
19.39890451
19.39702178
19.39511889
19.39320083
19.3912718
19.38933523
19.38739383
19.38544967
19.3835042
19.38155838
19.37961272
19.37766742
19.37572241
19.37488987
19.37517107
19.37545451
19.37574172
19.37603423
19.37633357
19.3766413
19.37695899
19.37728825
19.3776307
19.37798801
19.37836186
19.37875396
19.37916608
19.37959997
19.38005745
19.38054034
19.38105047
19.38158969
19.38215984
19.38276275
19.38340022
19.38407399
19.38478575
19.38553708
19.38632947
19.38716423
19.3880425
19.3889652
19.38993297
19.39094615
19.39200473
19.39310828
19.3942559
19.39544617
19.3966771
19.39794608
19.39924978
19.40058417
19.40194445
19.40332501
19.40471941
19.40612039
19.40751987
19.40890901
19.41027819
19.41161717
19.41291514
19.41416086
19.41534281
19.41644936
19.41746895
19.41839033
19.41920272
19.41989608
19.42046129
19.42089034
19.42117656
19.42131479
19.42130113
19.4211336
19.42081196
19.42033751
19.41971318
19.41894339
19.41803397
19.41699193
19.41582532
19.41454298
19.41315437
19.41166929
19.41009773
19.40844962
19.40673469
19.40496228
19.40314119
19.40127963
19.39938506
19.39746419
19.39552291
19.39356631
19.39159865
19.38962343
19.3876434
19.38566067
19.38367669
19.38169244
19.37970842
19.37772481
19.37574153
19.37489162
19.37517635
19.37546335
19.37575416
19.37605034
19.37635343
19.37666502
19.3769867
19.3773201
19.37766686
19.37802866
19.37840721
19.37880425
19.37922156
19.37966093
19.38012418
19.38061317
19.38112975
19.3816758
19.38225318
19.38286374
19.38350931
19.38419166
19.3849125
19.38567345
19.38647599
19.38732147
19.38821104
19.38914564
19.39012593
19.39115227
19.39222463
19.39334259
19.39450525
19.39571118
19.39695837
19.39824416
19.39956522
19.40091746
19.40229602
19.4036952
19.40510851
19.40652858
19.40794723
19.40935548
19.41074359
19.41210118
19.41341728
19.41468049
19.41587912
19.41700135
19.41803547
19.41897004
19.41979413
19.42049753
19.42107099
19.42150637
19.4217969
19.42193732
19.42192369
19.421754
19.421428
19.42094702
19.42031403
19.41953354
19.41861146
19.41755492
19.4163721
19.41507198
19.41366416
19.41215861
19.41056545
19.40889479
19.40715649
19.40536002
19.40351432
19.40162771
19.39970775
19.39776125
19.39579418
19.39381168
19.39181807
19.38981689
19.38781093
19.3858023
19.38379247
19.38178242
19.37977265
19.37776333
19.37575436
19.3748925
19.375179
19.37546778
19.3757604
19.37605842
19.3763634
19.37667692
19.37700061
19.37733608
19.37768499
19.37804905
19.37842996
19.37882948
19.37924939
19.3796915
19.38015765
19.3806497
19.38116952
19.38171899
19.3823
19.3829144
19.38356404
19.3842507
19.3849761
19.38574186
19.38654949
19.38740035
19.3882956
19.38923618
19.39022275
19.39125569
19.39233497
19.39346017
19.39463038
19.39584417
19.39709953
19.39839378
19.39972356
19.40108476
19.4024725
19.40388105
19.40530386
19.40673353
19.40816181
19.40957967
19.41097731
19.41234426
19.41366948
19.41494149
19.4161485
19.41727863
19.41832007
19.41926128
19.42009126
19.42079972
19.42137733
19.4218159
19.42210859
19.42225012
19.42223651
19.42206574
19.42173755
19.42125328
19.42061594
19.41983007
19.41890162
19.41783778
19.4166468
19.41533774
19.41392026
19.41240441
19.4108004
19.4091184
19.40736835
19.40555978
19.40370171
19.40180251
19.3998698
19.39791042
19.39593039
19.39393488
19.39192824
19.38991403
19.38789504
19.3858734
19.3838506
19.3818276
19.3798049
19.37778266
19.3757608
19.3748925
19.375179
19.37546778
19.3757604
19.37605842
19.3763634
19.37667692
19.37700061
19.37733608
19.37768499
19.37804905
19.37842996
19.37882948
19.37924939
19.3796915
19.38015765
19.3806497
19.38116952
19.38171899
19.3823
19.3829144
19.38356404
19.3842507
19.3849761
19.38574186
19.38654949
19.38740035
19.3882956
19.38923618
19.39022275
19.39125569
19.39233497
19.39346017
19.39463038
19.39584417
19.39709953
19.39839378
19.39972356
19.40108476
19.4024725
19.40388105
19.40530386
19.40673353
19.40816181
19.40957967
19.41097731
19.41234426
19.41366948
19.41494149
19.4161485
19.41727863
19.41832007
19.41926128
19.42009126
19.42079972
19.42137733
19.4218159
19.42210859
19.42225012
19.42223652
19.42206574
19.42173755
19.42125329
19.42061594
19.41983007
19.41890162
19.41783778
19.4166468
19.41533774
19.41392026
19.41240441
19.4108004
19.4091184
19.40736835
19.40555978
19.40370171
19.40180251
19.3998698
19.39791042
19.39593039
19.39393488
19.39192824
19.38991403
19.38789504
19.3858734
19.3838506
19.3818276
19.3798049
19.37778266
19.3757608
19.37489162
19.37517635
19.37546335
19.37575416
19.37605034
19.37635343
19.37666502
19.3769867
19.3773201
19.37766686
19.37802866
19.37840721
19.37880425
19.37922156
19.37966093
19.38012418
19.38061317
19.38112975
19.3816758
19.38225318
19.38286374
19.38350931
19.38419166
19.38491251
19.38567345
19.38647599
19.38732147
19.38821104
19.38914564
19.39012593
19.39115227
19.39222463
19.39334259
19.39450525
19.39571118
19.39695837
19.39824417
19.39956523
19.40091747
19.40229602
19.4036952
19.40510851
19.40652858
19.40794723
19.40935548
19.4107436
19.41210119
19.41341729
19.4146805
19.41587912
19.41700136
19.41803548
19.41897005
19.41979414
19.42049754
19.42107099
19.42150638
19.4217969
19.42193732
19.42192369
19.421754
19.421428
19.42094703
19.42031404
19.41953355
19.41861146
19.41755492
19.4163721
19.41507198
19.41366416
19.4121586
19.41056545
19.40889479
19.40715649
19.40536001
19.40351432
19.4016277
19.39970775
19.39776125
19.39579418
19.39381168
19.39181807
19.38981689
19.38781093
19.3858023
19.38379247
19.38178242
19.37977265
19.37776333
19.37575436
19.37488987
19.37517107
19.37545451
19.37574172
19.37603423
19.37633357
19.3766413
19.37695899
19.37728825
19.3776307
19.37798801
19.37836186
19.37875396
19.37916608
19.37959997
19.38005745
19.38054034
19.38105047
19.38158969
19.38215984
19.38276275
19.38340022
19.38407399
19.38478575
19.38553709
19.38632948
19.38716424
19.38804251
19.3889652
19.38993297
19.39094616
19.39200474
19.39310828
19.3942559
19.39544617
19.39667711
19.39794608
19.39924978
19.40058418
19.40194446
19.40332501
19.40471941
19.40612039
19.40751988
19.40890901
19.4102782
19.41161718
19.41291515
19.41416087
19.41534282
19.41644937
19.41746896
19.41839034
19.41920273
19.41989609
19.42046129
19.42089035
19.42117657
19.42131479
19.42130113
19.4211336
19.42081196
19.42033752
19.41971318
19.4189434
19.41803397
19.41699193
19.41582532
19.41454298
19.41315437
19.41166929
19.41009773
19.40844962
19.40673469
19.40496227
19.40314119
19.40127963
19.39938506
19.39746419
19.39552291
19.39356631
19.39159865
19.38962343
19.3876434
19.38566067
19.38367669
19.38169244
19.37970842
19.37772481
19.37574153
19.37488725
19.37516319
19.37544133
19.37572317
19.3760102
19.37630393
19.37660589
19.37691763
19.37724072
19.37757675
19.37792736
19.37829419
19.37867893
19.37908329
19.37950903
19.3799579
19.38043168
19.38093219
19.38146123
19.3820206
19.38261209
19.38323747
19.38389845
19.38459667
19.38533368
19.38611094
19.38692973
19.38779115
19.3886961
19.38964521
19.39063881
19.39167686
19.39275894
19.39388416
19.39505112
19.39625785
19.39750178
19.39877965
19.4000875
19.4014206
19.40277344
19.40413973
19.40551233
19.40688334
19.40824407
19.40958513
19.41089647
19.41216752
19.41338728
19.41454448
19.41562775
19.41662579
19.4175276
19.41832264
19.41900111
19.41955409
19.41997377
19.42025362
19.4203886
19.42037491
19.4202106
19.41989544
19.4194307
19.41881922
19.41806533
19.41717471
19.4161542
19.41501167
19.41375574
19.41239566
19.410941
19.40940151
19.40778693
19.40610675
19.4043701
19.40258562
19.40076131
19.39890451
19.39702177
19.39511889
19.39320083
19.3912718
19.38933523
19.38739383
19.38544966
19.3835042
19.38155838
19.37961272
19.37766742
19.37572241
19.37488379
19.37515276
19.37542388
19.3756986
19.37597838
19.3762647
19.37655903
19.3768629
19.37717781
19.37750535
19.37784708
19.37820462
19.37857962
19.37897374
19.37938867
19.37982614
19.38028789
19.38077567
19.38129123
19.38183634
19.38241274
19.38302214
19.38366619
19.38434651
19.3850646
19.38582185
19.38661952
19.38745868
19.38834019
19.38926466
19.39023238
19.39124332
19.39229706
19.39339271
19.39452891
19.39570371
19.39691461
19.39815842
19.39943126
19.40072854
19.40204488
19.40337413
19.40470937
19.40604289
19.40736625
19.4086703
19.40994529
19.41118094
19.41236658
19.41349127
19.41454395
19.41551369
19.41638981
19.41716209
19.41782102
19.41835797
19.41876537
19.41903688
19.41916762
19.41915391
19.41899386
19.41868723
19.41823526
19.41764069
19.41690771
19.41604181
19.41504963
19.41393875
19.41271757
19.41139501
19.40998038
19.40848312
19.40691266
19.40527823
19.40358869
19.40185242
19.40007722
19.3982702
19.39643774
19.39458548
19.39271828
19.39084021
19.38895464
19.38706423
19.38517099
19.38327637
19.3813813
19.37948631
19.37759161
19.37569715
19.3748795
19.37513985
19.37540227
19.37566818
19.37593899
19.37621612
19.37650101
19.37679512
19.37709993
19.37741694
19.37774769
19.37809374
19.37845667
19.3788381
19.37923966
19.37966303
19.38010988
19.38058191
19.3810808
19.38160827
19.38216599
19.38275562
19.38337875
19.38403693
19.38473161
19.38546414
19.38623571
19.38704736
19.38789991
19.38879393
19.3897297
19.39070717
19.39172593
19.3927851
19.39388333
19.39501877
19.39618894
19.39739076
19.39862049
19.39987364
19.40114503
19.40242871
19.40371798
19.40500539
19.40628279
19.40754137
19.4087717
19.4099639
19.41110765
19.41219243
19.41320761
19.41414265
19.41498727
19.41573167
19.41636668
19.41688401
19.41727638
19.41753771
19.4176633
19.4176496
19.41749481
19.4171987
19.41676242
19.41618863
19.41548133
19.41464579
19.41368838
19.41261641
19.41143791
19.41016147
19.40879603
19.40735068
19.40583449
19.40425635
19.40262478
19.40094787
19.39923313
19.39748743
19.39571694
19.39392709
19.39212258
19.39030738
19.38848474
19.38665725
19.38482686
19.382995
19.3811626
19.37933019
19.37749798
19.37566595
19.37487441
19.37512453
19.37537664
19.37563211
19.37589227
19.37615851
19.37643219
19.37671473
19.37700755
19.37731208
19.37762981
19.37796222
19.37831085
19.37867723
19.37906295
19.3794696
19.37989879
19.38035214
19.38083129
19.38133785
19.38187344
19.38243964
19.38303799
19.38366995
19.38433692
19.38504017
19.38578086
19.38655996
19.38737824
19.38823624
19.38913423
19.39007215
19.39104956
19.39206562
19.39311903
19.39420798
19.39533009
19.39648239
19.39766126
19.3988624
19.40008083
19.40131083
19.40254598
19.40377914
19.40500249
19.4062076
19.40738546
19.4085266
19.40962118
19.41065913
19.41163032
19.41252467
19.41333238
19.41404411
19.41465111
19.41514549
19.4155203
19.41576974
19.41588935
19.41587573
19.41572716
19.41544342
19.41502561
19.41447623
19.4137991
19.41299924
19.4120827
19.41105643
19.40992809
19.40870587
19.40739828
19.406014
19.40456167
19.40304979
19.40148649
19.39987952
19.39823604
19.39656264
19.39486522
19.39314901
19.39141851
19.38967754
19.38792922
19.38617606
19.38441996
19.38266229
19.38090398
19.37914556
19.37738724
19.37562906
19.37486855
19.37510691
19.37534715
19.37559059
19.37583851
19.37609221
19.376353
19.37662223
19.37690125
19.37719143
19.37749417
19.3778109
19.37814307
19.37849216
19.37885965
19.37924707
19.37965595
19.38008784
19.38054428
19.38102681