/*--------------------------------*- C++ -*----------------------------------*\
| =========                 |                                                 |
| \\      /  F ield         | OpenFOAM: The Open Source CFD Toolbox           |
|  \\    /   O peration     | Version:  2312                                  |
|   \\  /    A nd           | Website:  www.openfoam.com                      |
|    \\/     M anipulation  |                                                 |
\*---------------------------------------------------------------------------*/
FoamFile
{
    version     2.0;
    format      ascii;
    arch        "LSB;label=32;scalar=64";
    class       surfaceVectorField;
    location    "0.13/beam";
    object      Gamma;
}
// * * * * * * * * * * * * * * * * * * * * * * * * * * * * * * * * * * * * * //

dimensions      [0 0 0 0 0 0 0];

oriented        oriented;

internalField   nonuniform List<vector> 
59
(
(0.0004587004087 9.075668515e-19 2.332528713e-07)
(0.0004587002126 4.486905595e-19 2.293702727e-07)
(0.0004586999013 -2.950784991e-19 2.229751442e-07)
(0.0004586994971 -1.292913543e-18 2.141809266e-07)
(0.0004586990292 -2.503102777e-18 2.031456431e-07)
(0.0004586985324 -3.874736255e-18 1.900709099e-07)
(0.0004586980444 -5.349109326e-18 1.752001194e-07)
(0.0004586976048 -6.862880904e-18 1.588155189e-07)
(0.0004586972519 -8.350771086e-18 1.412344642e-07)
(0.0004586970218 -9.748828214e-18 1.228039172e-07)
(0.0004586969465 -1.099889481e-17 1.03893267e-07)
(0.0004586970529 -1.205352126e-17 8.488571182e-08)
(0.0004586973619 -1.287967492e-17 6.616742858e-08)
(0.0004586978886 -1.34636586e-17 4.811574349e-08)
(0.0004586986422 -1.381564499e-17 3.108523011e-08)
(0.0004586996269 -1.397330465e-17 1.539349846e-08)
(0.0004587008426 -1.400419414e-17 1.30615163e-09)
(0.0004587022858 -1.400772429e-17 -1.09774792e-08)
(0.0004587039509 -1.411416973e-17 -2.133742665e-08)
(0.0004587058312 -1.448087927e-17 -2.974340499e-08)
(0.0004587079197 -1.528792139e-17 -3.626169353e-08)
(0.0004587102096 -1.672926474e-17 -4.105680621e-08)
(0.0004587126949 -1.900165103e-17 -4.438722444e-08)
(0.0004587153717 -2.229236965e-17 -4.659437628e-08)
(0.0004587182349 -2.676044626e-17 -4.808136705e-08)
(0.0004587212827 -3.252581402e-17 -4.928928804e-08)
(0.0004587245112 -3.964465673e-17 -5.066060268e-08)
(0.0004587279194 -4.810320525e-17 -5.260281849e-08)
(0.0004587315024 -5.779231714e-17 -5.544449711e-08)
(0.0004587352579 -6.85293211e-17 -5.939921457e-08)
(0.0004587391789 -8.000005408e-17 -6.452592738e-08)
(0.0004587432604 -9.180850614e-17 -7.071311182e-08)
(0.0004587474925 -1.034929922e-16 -7.766086784e-08)
(0.0004587518678 -1.145371782e-16 -8.490353449e-08)
(0.0004587563746 -1.243951605e-16 -9.182874596e-08)
(0.0004587610055 -1.325556784e-16 -9.774385316e-08)
(0.0004587657499 -1.385746142e-16 -1.019334214e-07)
(0.0004587706032 -1.421454499e-16 -1.037514209e-07)
(0.0004587755585 -1.431429996e-16 -1.026967247e-07)
(0.0004587806153 -1.416790645e-16 -9.848973324e-08)
(0.0004587857704 -1.381357789e-16 -9.112723128e-08)
(0.0004587910259 -1.331758047e-16 -8.089590454e-08)
(0.0004587963797 -1.277294079e-16 -6.837114627e-08)
(0.0004588018338 -1.229242032e-16 -5.434471657e-08)
(0.0004588073845 -1.199825914e-16 -3.976295505e-08)
(0.0004588130325 -1.200437732e-16 -2.559599121e-08)
(0.0004588187734 -1.239400963e-16 -1.275719331e-08)
(0.000458824608 -1.319138022e-16 -1.986517829e-09)
(0.0004588305333 -1.432799753e-16 6.181109119e-09)
(0.0004588365526 -1.560835844e-16 1.144121277e-08)
(0.000458842665 -1.667061231e-16 1.365209396e-08)
(0.0004588488765 -1.695004394e-16 1.273197067e-08)
(0.0004588551877 -1.563368667e-16 8.480480805e-09)
(0.0004588616052 -1.160056159e-16 3.362031531e-10)
(0.0004588681295 -3.323834206e-17 -1.294272823e-08)
(0.0004588747662 1.132834497e-16 -3.375832516e-08)
(0.0004588815136 3.54428849e-16 -6.633951886e-08)
(0.0004588883728 7.378272897e-16 -1.178697744e-07)
(0.0004588953317 1.340012068e-15 -2.001665998e-07)
)
;

boundaryField
{
    left
    {
        type            calculated;
        value           uniform (-0.0004587004756 -4.517328176e-14 -2.345547051e-07);
    }
    right
    {
        type            calculated;
        value           uniform (0.0004589023651 -4.287738266e-14 -3.326234799e-07);
    }
    beam
    {
        type            empty;
        value           nonuniform List<vector> 0();
    }
}


// ************************************************************************* //
