/*--------------------------------*- C++ -*----------------------------------*\
| =========                 |                                                 |
| \\      /  F ield         | OpenFOAM: The Open Source CFD Toolbox           |
|  \\    /   O peration     | Version:  2312                                  |
|   \\  /    A nd           | Website:  www.openfoam.com                      |
|    \\/     M anipulation  |                                                 |
\*---------------------------------------------------------------------------*/
FoamFile
{
    version     2.0;
    format      ascii;
    arch        "LSB;label=32;scalar=64";
    class       surfaceVectorField;
    location    "0.13/beam";
    object      K;
}
// * * * * * * * * * * * * * * * * * * * * * * * * * * * * * * * * * * * * * //

dimensions      [0 -1 0 0 0 0 0];

oriented        oriented;

internalField   nonuniform List<vector> 
59
(
(1.423072552e-18 0.002590259941 -1.091626406e-14)
(2.941156448e-18 0.005151813443 -1.843259866e-14)
(4.640386025e-18 0.007656458188 -1.92893841e-14)
(6.592137392e-18 0.01007699804 -1.050238619e-14)
(8.845623105e-18 0.01238773994 1.051141898e-14)
(1.142537002e-17 0.01456498216 4.582168107e-14)
(1.43253934e-17 0.01658748698 9.689137716e-14)
(1.750902825e-17 0.01843692718 1.645072564e-13)
(2.092307053e-17 0.02009829556 2.487442829e-13)
(2.447419496e-17 0.02156026334 3.489622455e-13)
(2.806419337e-17 0.02281546827 4.638440437e-13)
(3.160301641e-17 0.02386071532 5.914877116e-13)
(3.500643038e-17 0.02469706968 7.295455177e-13)
(3.820503611e-17 0.02532982423 8.754112179e-13)
(4.116535396e-17 0.02576832466 1.026458711e-12)
(4.389799289e-17 0.0260256388 1.180326903e-12)
(4.645104303e-17 0.02611806398 1.335237084e-12)
(4.894535308e-17 0.02606447216 1.49033523e-12)
(5.154978528e-17 0.02588550349 1.646039153e-12)
(5.445983771e-17 0.02560263025 1.804359066e-12)
(5.791345542e-17 0.02523712552 1.969173721e-12)
(6.216400466e-17 0.02480899734 2.146427749e-12)
(6.746387941e-17 0.02433588583 2.344239789e-12)
(7.40425058e-17 0.02383210905 2.57285537e-12)
(8.208355762e-17 0.02330788795 2.844427361e-12)
(9.172248229e-17 0.02276875553 3.172658753e-12)
(1.03019019e-16 0.02221535205 3.572228393e-12)
(1.159312671e-16 0.02164361039 4.058049827e-12)
(1.303038467e-16 0.0210453872 4.644356026e-12)
(1.462160645e-16 0.02040953627 5.343765128e-12)
(1.630053189e-16 0.01972340198 6.166143823e-12)
(1.799485625e-16 0.01897461911 7.117426818e-12)
(1.967215693e-16 0.01815310076 8.198799106e-12)
(2.126334712e-16 0.01725299903 9.406030033e-12)
(2.268605386e-16 0.01627443626 1.072900605e-11)
(2.385353446e-16 0.01522476154 1.215175983e-11)
(2.467509353e-16 0.01411912257 1.365303242e-11)
(2.506813481e-16 0.01298020677 1.520740796e-11)
(2.496529887e-16 0.01183705561 1.678707842e-11)
(2.432661972e-16 0.0107230343 1.83641614e-11)
(2.315020073e-16 0.009673075385 1.991350792e-11)
(2.147676474e-16 0.008720541459 2.141575474e-11)
(1.939655063e-16 0.007894021551 2.286035872e-11)
(1.703973991e-16 0.007214532883 2.424817353e-11)
(1.457295596e-16 0.006693467114 2.559306716e-11)
(1.21761098e-16 0.006331601848 2.692198855e-11)
(1.002993592e-16 0.006119283785 2.827280825e-11)
(8.286679994e-17 0.006037703507 2.968935418e-11)
(7.052336394e-17 0.006060991971 3.121301059e-11)
(6.36056768e-17 0.006158632998 3.287055346e-11)
(6.160196654e-17 0.00629764177 3.465790659e-11)
(6.305304278e-17 0.006443799424 3.651970051e-11)
(6.567425034e-17 0.006561329399 3.83242948e-11)
(6.670246323e-17 0.006610243582 3.983298595e-11)
(6.352128445e-17 0.00654057769 4.066049208e-11)
(5.452921387e-17 0.006282204149 4.021901214e-11)
(4.007271396e-17 0.005728299382 3.763189518e-11)
(2.298022342e-17 0.004708880751 3.158805619e-11)
(8.139279923e-18 0.002948807844 2.00892988e-11)
)
;

boundaryField
{
    left
    {
        type            calculated;
        value           uniform (3.936586634e-30 -5.701535622e-28 3.092691216e-32);
    }
    right
    {
        type            calculated;
        value           uniform (-9.931509233e-30 2.035955133e-27 -6.149469963e-31);
    }
    beam
    {
        type            empty;
        value           nonuniform List<vector> 0();
    }
}


// ************************************************************************* //
