/*--------------------------------*- C++ -*----------------------------------*\
| =========                 |                                                 |
| \\      /  F ield         | OpenFOAM: The Open Source CFD Toolbox           |
|  \\    /   O peration     | Version:  2312                                  |
|   \\  /    A nd           | Website:  www.openfoam.com                      |
|    \\/     M anipulation  |                                                 |
\*---------------------------------------------------------------------------*/
FoamFile
{
    version     2.0;
    format      ascii;
    arch        "LSB;label=32;scalar=64";
    class       surfaceVectorField;
    location    "0.13/beam";
    object      M;
}
// * * * * * * * * * * * * * * * * * * * * * * * * * * * * * * * * * * * * * //

dimensions      [1 2 -2 0 0 0 0];

oriented        oriented;

internalField   nonuniform List<vector> 
59
(
(2.762405843e-19 1.562408533e-06 -6.523405539e-18)
(5.579700368e-19 3.107501744e-06 -1.099671701e-17)
(8.514813758e-19 4.618268388e-06 -1.145446566e-17)
(1.164558558e-18 6.078304138e-06 -6.097276239e-18)
(1.506936544e-18 7.472111303e-06 6.632243885e-18)
(1.890448291e-18 8.78539333e-06 2.798185567e-17)
(2.32880404e-18 1.000533992e-05 5.883341796e-17)
(2.836987921e-18 1.112089636e-05 9.966094016e-17)
(3.430328045e-18 1.21230105e-05 1.505091423e-16)
(4.123300444e-18 1.3004849e-05 2.109914212e-16)
(4.928231878e-18 1.376197104e-05 2.803129555e-16)
(5.854143639e-18 1.439244943e-05 3.573262278e-16)
(6.905937744e-18 1.489692667e-05 4.406149414e-16)
(8.084185725e-18 1.527859536e-05 5.286069792e-16)
(9.385818066e-18 1.554309268e-05 6.197183598e-16)
(1.080595728e-17 1.569830097e-05 7.125250542e-16)
(1.234102869e-17 1.575405054e-05 8.059543941e-16)
(1.399327302e-17 1.572172471e-05 8.994914874e-16)
(1.577657781e-17 1.561377331e-05 9.933885336e-16)
(1.772329741e-17 1.544314813e-05 1.088858071e-15)
(1.989172607e-17 1.522268079e-05 1.188239394e-15)
(2.237355359e-17 1.496443987e-05 1.295117424e-15)
(2.530083029e-17 1.467906563e-05 1.414387752e-15)
(2.885106619e-17 1.437519453e-05 1.552228045e-15)
(3.324952558e-17 1.40589917e-05 1.715965473e-15)
(3.876870423e-17 1.373379457e-05 1.913861137e-15)
(4.572301937e-17 1.339998934e-05 2.15476365e-15)
(5.445891224e-17 1.305512278e-05 2.447662154e-15)
(6.533946923e-17 1.269428292e-05 2.80113441e-15)
(7.872595702e-17 1.231074655e-05 3.222783558e-15)
(9.495230302e-17 1.189687995e-05 3.718552973e-15)
(1.14295199e-16 1.14452246e-05 4.292014773e-15)
(1.369472183e-16 1.094969624e-05 4.943877203e-15)
(1.629898134e-16 1.040676748e-05 5.671583655e-15)
(1.92367372e-16 9.81651211e-06 6.469031577e-15)
(2.248696485e-16 9.183363012e-06 7.326590704e-15)
(2.601250167e-16 8.516457064e-06 8.231442639e-15)
(2.976079921e-16 7.829479001e-06 9.168265508e-15)
(3.366649461e-16 7.139946225e-06 1.012029828e-14)
(3.765593089e-16 6.467984166e-06 1.107073816e-14)
(4.165375127e-16 5.834663649e-06 1.200443296e-14)
(4.559115513e-16 5.26010852e-06 1.29097205e-14)
(4.941525937e-16 4.761563283e-06 1.378025669e-14)
(5.309832557e-16 4.351705232e-06 1.461656731e-14)
(5.664535667e-16 4.037405654e-06 1.542702159e-14)
(6.009808668e-16 3.819133592e-06 1.622787078e-14)
(6.353319889e-16 3.691066309e-06 1.704194535e-14)
(6.705276335e-16 3.641858228e-06 1.789566206e-14)
(7.076493617e-16 3.655905503e-06 1.881396018e-14)
(7.475387443e-16 3.714801204e-06 1.981297004e-14)
(7.903810671e-16 3.798649348e-06 2.089022375e-14)
(8.351743982e-16 3.8868096e-06 2.201233672e-14)
(8.790823351e-16 3.957702035e-06 2.309995534e-14)
(9.166515326e-16 3.987206385e-06 2.400920002e-14)
(9.388397633e-16 3.945184894e-06 2.450785015e-14)
(9.316913949e-16 3.789337592e-06 2.424162752e-14)
(8.743500385e-16 3.455229991e-06 2.268216119e-14)
(7.357409468e-16 2.840330945e-06 1.903923634e-14)
(4.687901992e-16 1.778679608e-06 1.21084931e-14)
)
;

boundaryField
{
    left
    {
        type            calculated;
        value           uniform (4.749016554e-33 -3.439086466e-31 -1.010889144e-36);
    }
    right
    {
        type            calculated;
        value           uniform (-1.198587004e-32 1.228059633e-30 1.505415225e-34);
    }
    beam
    {
        type            empty;
        value           nonuniform List<vector> 0();
    }
}


// ************************************************************************* //
