/*--------------------------------*- C++ -*----------------------------------*\
| =========                 |                                                 |
| \\      /  F ield         | OpenFOAM: The Open Source CFD Toolbox           |
|  \\    /   O peration     | Version:  2312                                  |
|   \\  /    A nd           | Website:  www.openfoam.com                      |
|    \\/     M anipulation  |                                                 |
\*---------------------------------------------------------------------------*/
FoamFile
{
    version     2.0;
    format      ascii;
    arch        "LSB;label=32;scalar=64";
    class       pointVectorField;
    location    "0.13/beam";
    object      pointW;
}
// * * * * * * * * * * * * * * * * * * * * * * * * * * * * * * * * * * * * * //

dimensions      [0 1 0 0 0 0 0];

internalField   nonuniform List<vector> 
1952
(
(-1.656393103e-05 1.595790179e-16 3.429195712e-08)
(-1.62456551e-05 1.565587937e-16 3.363303713e-08)
(-1.53030846e-05 1.474514955e-16 3.168165328e-08)
(-1.377241174e-05 1.327063459e-16 2.85127335e-08)
(-1.171247986e-05 1.127570259e-16 2.424809996e-08)
(-9.202423165e-06 8.847089727e-17 1.905158249e-08)
(-6.338726539e-06 6.114900253e-17 1.312293174e-08)
(-3.231461447e-06 3.122502257e-17 6.690026334e-09)
(-7.726297582e-16 0 -1.563809146e-16)
(3.231461446e-06 -3.122502257e-17 -6.690026641e-09)
(6.338726537e-06 -6.114900253e-17 -1.312293203e-08)
(9.202423164e-06 -8.847089727e-17 -1.905158275e-08)
(1.171247986e-05 -1.127570259e-16 -2.424810018e-08)
(1.377241174e-05 -1.327063459e-16 -2.851273367e-08)
(1.53030846e-05 -1.474514955e-16 -3.16816534e-08)
(1.62456551e-05 -1.565587937e-16 -3.363303719e-08)
(1.656393103e-05 -1.595790179e-16 -3.429195712e-08)
(1.62456551e-05 -1.565587937e-16 -3.363303713e-08)
(1.53030846e-05 -1.474514955e-16 -3.168165328e-08)
(1.377241174e-05 -1.327063459e-16 -2.85127335e-08)
(1.171247986e-05 -1.127570259e-16 -2.424809996e-08)
(9.202423165e-06 -8.847089727e-17 -1.905158249e-08)
(6.338726539e-06 -6.114900253e-17 -1.312293174e-08)
(3.231461447e-06 -3.122502257e-17 -6.690026334e-09)
(7.726313295e-16 0 1.563809114e-16)
(-3.231461446e-06 3.122502257e-17 6.690026641e-09)
(-6.338726537e-06 6.114900253e-17 1.312293203e-08)
(-9.202423164e-06 8.847089727e-17 1.905158275e-08)
(-1.171247986e-05 1.127570259e-16 2.424810018e-08)
(-1.377241174e-05 1.327063459e-16 2.851273367e-08)
(-1.53030846e-05 1.474514955e-16 3.16816534e-08)
(-1.62456551e-05 1.565587937e-16 3.363303719e-08)
(3.130589949e-06 -7.394344242e-15 -0.0001846504829)
(3.453273142e-06 -7.397403003e-15 -0.0001846511602)
(4.408895683e-06 -7.406618721e-15 -0.0001846531661)
(5.960764218e-06 -7.42114703e-15 -0.0001846564234)
(8.049220562e-06 -7.44109635e-15 -0.000184660807)
(1.059403474e-05 -7.465382479e-15 -0.0001846661484)
(1.34973858e-05 -7.492704374e-15 -0.0001846722425)
(1.664767808e-05 -7.522628354e-15 -0.0001846788548)
(1.992388651e-05 -7.553853376e-15 -0.0001846857315)
(2.320009493e-05 -7.585078399e-15 -0.0001846926081)
(2.635038722e-05 -7.615002379e-15 -0.0001846992205)
(2.925373828e-05 -7.642324273e-15 -0.0001847053145)
(3.179855246e-05 -7.666610402e-15 -0.000184710656)
(3.38870088e-05 -7.686559722e-15 -0.0001847150396)
(3.543887734e-05 -7.701521712e-15 -0.0001847182969)
(3.639449988e-05 -7.71052059e-15 -0.0001847203027)
(3.671718307e-05 -7.713591645e-15 -0.00018472098)
(3.639449988e-05 -7.71052059e-15 -0.0001847203027)
(3.543887734e-05 -7.701521712e-15 -0.0001847182969)
(3.38870088e-05 -7.686559722e-15 -0.0001847150396)
(3.179855246e-05 -7.666610402e-15 -0.000184710656)
(2.925373828e-05 -7.642324273e-15 -0.0001847053145)
(2.635038722e-05 -7.615002379e-15 -0.0001846992205)
(2.320009493e-05 -7.585078399e-15 -0.0001846926081)
(1.992388651e-05 -7.553853376e-15 -0.0001846857315)
(1.664767809e-05 -7.522628354e-15 -0.0001846788548)
(1.34973858e-05 -7.492704374e-15 -0.0001846722425)
(1.059403474e-05 -7.465382479e-15 -0.0001846661484)
(8.049220563e-06 -7.44109635e-15 -0.000184660807)
(5.960764219e-06 -7.42114703e-15 -0.0001846564234)
(4.408895684e-06 -7.406618721e-15 -0.0001846531661)
(3.453273143e-06 -7.397403003e-15 -0.0001846511602)
(2.234736255e-05 -1.596772898e-14 -0.0003743992236)
(2.268321867e-05 -1.59708401e-14 -0.0003743999573)
(2.367785267e-05 -1.597983898e-14 -0.0003744021303)
(2.529307327e-05 -1.599458413e-14 -0.0003744056591)
(2.746678685e-05 -1.601453345e-14 -0.0003744104079)
(3.01154882e-05 -1.60383859e-14 -0.0003744161945)
(3.313736302e-05 -1.606614147e-14 -0.0003744227963)
(3.641625997e-05 -1.609649913e-14 -0.0003744299597)
(3.982621334e-05 -1.612772416e-14 -0.0003744374094)
(4.323616671e-05 -1.615894918e-14 -0.000374444859)
(4.651506365e-05 -1.618843948e-14 -0.0003744520224)
(4.953693847e-05 -1.621619505e-14 -0.0003744586242)
(5.218563982e-05 -1.62400475e-14 -0.0003744644108)
(5.43593534e-05 -1.625999682e-14 -0.0003744691597)
(5.5974574e-05 -1.627517565e-14 -0.0003744726884)
(5.696920801e-05 -1.628417453e-14 -0.0003744748614)
(5.730506413e-05 -1.628724382e-14 -0.0003744755951)
(5.696920801e-05 -1.628417453e-14 -0.0003744748614)
(5.5974574e-05 -1.627517565e-14 -0.0003744726884)
(5.43593534e-05 -1.625999682e-14 -0.0003744691597)
(5.218563982e-05 -1.62400475e-14 -0.0003744644108)
(4.953693847e-05 -1.621619505e-14 -0.0003744586242)
(4.651506365e-05 -1.618843948e-14 -0.0003744520224)
(4.323616671e-05 -1.615894918e-14 -0.000374444859)
(3.982621334e-05 -1.612772416e-14 -0.0003744374094)
(3.641625997e-05 -1.609649913e-14 -0.0003744299597)
(3.313736302e-05 -1.606614147e-14 -0.0003744227963)
(3.011548821e-05 -1.60383859e-14 -0.0003744161945)
(2.746678685e-05 -1.601453345e-14 -0.0003744104079)
(2.529307327e-05 -1.599458413e-14 -0.0003744056591)
(2.367785267e-05 -1.597983898e-14 -0.0003744021303)
(2.268321867e-05 -1.59708401e-14 -0.0003743999573)
(4.107092811e-05 -2.457353384e-14 -0.000574221618)
(4.142857713e-05 -2.457669485e-14 -0.0005742224501)
(4.248775057e-05 -2.45855853e-14 -0.0005742249142)
(4.420777899e-05 -2.460011361e-14 -0.0005742289158)
(4.652253967e-05 -2.462006293e-14 -0.000574234301)
(4.934310894e-05 -2.464434906e-14 -0.000574240863)
(5.256106601e-05 -2.467210464e-14 -0.0005742483495)
(5.605272277e-05 -2.47024623e-14 -0.0005742564728)
(5.96839399e-05 -2.473368732e-14 -0.0005742649207)
(6.331515702e-05 -2.476491234e-14 -0.0005742733687)
(6.680681378e-05 -2.479440264e-14 -0.000574281492)
(7.002477086e-05 -2.482215822e-14 -0.0005742889785)
(7.284534013e-05 -2.484644435e-14 -0.0005742955405)
(7.516010081e-05 -2.486639367e-14 -0.0005743009257)
(7.688012923e-05 -2.488135566e-14 -0.0005743049273)
(7.793930266e-05 -2.489046295e-14 -0.0005743073914)
(7.829695168e-05 -2.489349265e-14 -0.0005743082235)
(7.793930266e-05 -2.489046295e-14 -0.0005743073914)
(7.688012923e-05 -2.488135566e-14 -0.0005743049273)
(7.516010081e-05 -2.486639367e-14 -0.0005743009257)
(7.284534013e-05 -2.484644435e-14 -0.0005742955405)
(7.002477086e-05 -2.482215822e-14 -0.0005742889785)
(6.680681378e-05 -2.479440264e-14 -0.000574281492)
(6.331515702e-05 -2.476491234e-14 -0.0005742733687)
(5.96839399e-05 -2.473368732e-14 -0.0005742649207)
(5.605272278e-05 -2.47024623e-14 -0.0005742564728)
(5.256106602e-05 -2.467210464e-14 -0.0005742483495)
(4.934310894e-05 -2.464434906e-14 -0.000574240863)
(4.652253967e-05 -2.462006293e-14 -0.000574234301)
(4.420777899e-05 -2.460011361e-14 -0.0005742289158)
(4.248775057e-05 -2.45855853e-14 -0.0005742249142)
(4.142857713e-05 -2.457669485e-14 -0.0005742224501)
(5.928786766e-05 -3.321179796e-14 -0.0007890161021)
(5.96756896e-05 -3.321485881e-14 -0.0007890170805)
(6.082421978e-05 -3.322385769e-14 -0.000789019978)
(6.26893577e-05 -3.323903652e-14 -0.0007890246833)
(6.519940223e-05 -3.325898584e-14 -0.0007890310157)
(6.825792769e-05 -3.328327197e-14 -0.0007890387317)
(7.174736642e-05 -3.331102755e-14 -0.0007890475348)
(7.55335954e-05 -3.334138521e-14 -0.0007890570867)
(7.947115869e-05 -3.337261023e-14 -0.0007890670203)
(8.340872198e-05 -3.340383525e-14 -0.0007890769539)
(8.719495096e-05 -3.343332555e-14 -0.0007890865058)
(9.068438968e-05 -3.346108113e-14 -0.0007890953089)
(9.374291515e-05 -3.348536726e-14 -0.0007891030249)
(9.625295968e-05 -3.350531658e-14 -0.0007891093573)
(9.81180976e-05 -3.352006173e-14 -0.0007891140626)
(9.926662778e-05 -3.352927744e-14 -0.0007891169601)
(9.965444971e-05 -3.353237403e-14 -0.0007891179385)
(9.926662778e-05 -3.352927744e-14 -0.0007891169601)
(9.81180976e-05 -3.352006173e-14 -0.0007891140626)
(9.625295968e-05 -3.350531658e-14 -0.0007891093573)
(9.374291515e-05 -3.348536726e-14 -0.0007891030249)
(9.068438968e-05 -3.346108113e-14 -0.0007890953089)
(8.719495096e-05 -3.343332555e-14 -0.0007890865058)
(8.340872198e-05 -3.340383525e-14 -0.0007890769539)
(7.947115869e-05 -3.337261023e-14 -0.0007890670203)
(7.55335954e-05 -3.334138521e-14 -0.0007890570867)
(7.174736642e-05 -3.331102755e-14 -0.0007890475348)
(6.825792769e-05 -3.328327197e-14 -0.0007890387317)
(6.519940223e-05 -3.325898584e-14 -0.0007890310157)
(6.26893577e-05 -3.323903652e-14 -0.0007890246833)
(6.082421978e-05 -3.322385769e-14 -0.000789019978)
(5.96756896e-05 -3.321485881e-14 -0.0007890170805)
(7.69853671e-05 -4.186384733e-14 -0.001023516773)
(7.741141199e-05 -4.186690057e-14 -0.001023517954)
(7.867313899e-05 -4.187600787e-14 -0.001023521451)
(8.072210115e-05 -4.189096986e-14 -0.001023527129)
(8.347953062e-05 -4.191091918e-14 -0.001023534772)
(8.683949819e-05 -4.193520531e-14 -0.001023544084)
(9.067284898e-05 -4.196296088e-14 -0.001023554708)
(9.483224106e-05 -4.199331854e-14 -0.001023566235)
(9.915788267e-05 -4.202454357e-14 -0.001023578224)
(0.0001034835243 -4.205576859e-14 -0.001023590212)
(0.0001076429164 -4.208612625e-14 -0.00102360174)
(0.0001114762671 -4.211388183e-14 -0.001023612364)
(0.0001148362347 -4.213816795e-14 -0.001023621676)
(0.0001175936642 -4.215811727e-14 -0.001023629318)
(0.0001196426264 -4.217307926e-14 -0.001023634997)
(0.0001209043534 -4.218218656e-14 -0.001023638493)
(0.0001213303982 -4.218520696e-14 -0.001023639674)
(0.0001209043534 -4.218218656e-14 -0.001023638493)
(0.0001196426264 -4.217307926e-14 -0.001023634997)
(0.0001175936642 -4.215811727e-14 -0.001023629318)
(0.0001148362347 -4.213816795e-14 -0.001023621676)
(0.0001114762671 -4.211388183e-14 -0.001023612364)
(0.0001076429164 -4.208612625e-14 -0.00102360174)
(0.0001034835243 -4.205576859e-14 -0.001023590212)
(9.915788267e-05 -4.202454357e-14 -0.001023578224)
(9.483224106e-05 -4.199331854e-14 -0.001023566235)
(9.067284898e-05 -4.196296088e-14 -0.001023554708)
(8.68394982e-05 -4.193520531e-14 -0.001023544084)
(8.347953062e-05 -4.191091918e-14 -0.001023534772)
(8.072210115e-05 -4.189096986e-14 -0.001023527129)
(7.867313899e-05 -4.187600787e-14 -0.001023521451)
(7.741141199e-05 -4.186690057e-14 -0.001023517954)
(9.414994285e-05 -5.048728335e-14 -0.001282243256)
(9.462184669e-05 -5.049031939e-14 -0.001282244705)
(9.601938445e-05 -5.049953511e-14 -0.001282248995)
(9.82888944e-05 -5.051428026e-14 -0.001282255962)
(0.0001013431302 -5.053422958e-14 -0.001282265338)
(0.0001050647606 -5.055894939e-14 -0.001282276763)
(0.0001093107286 -5.058670496e-14 -0.001282289797)
(0.0001139178326 -5.061749631e-14 -0.00128230394)
(0.000118709081 -5.064872133e-14 -0.001282318648)
(0.0001235003294 -5.067994635e-14 -0.001282333357)
(0.0001281074334 -5.070987033e-14 -0.0012823475)
(0.0001323534014 -5.073762591e-14 -0.001282360534)
(0.0001360750318 -5.076234572e-14 -0.001282371959)
(0.0001391292677 -5.078229504e-14 -0.001282381335)
(0.0001413987776 -5.079747387e-14 -0.001282388302)
(0.0001427963154 -5.080647274e-14 -0.001282392592)
(0.0001432682192 -5.080958073e-14 -0.001282394041)
(0.0001427963154 -5.080647274e-14 -0.001282392592)
(0.0001413987776 -5.079747387e-14 -0.001282388302)
(0.0001391292677 -5.078229504e-14 -0.001282381335)
(0.0001360750318 -5.076234572e-14 -0.001282371959)
(0.0001323534014 -5.073762591e-14 -0.001282360534)
(0.0001281074334 -5.070987033e-14 -0.0012823475)
(0.0001235003294 -5.067994635e-14 -0.001282333357)
(0.000118709081 -5.064872133e-14 -0.001282318648)
(0.0001139178326 -5.061749631e-14 -0.00128230394)
(0.0001093107286 -5.058670496e-14 -0.001282289797)
(0.0001050647606 -5.055894939e-14 -0.001282276763)
(0.0001013431302 -5.053422958e-14 -0.001282265338)
(9.828889441e-05 -5.051428026e-14 -0.001282255962)
(9.601938445e-05 -5.049953511e-14 -0.001282248995)
(9.462184669e-05 -5.049031939e-14 -0.001282244705)
(0.0001107663916 -5.901197286e-14 -0.001569454474)
(0.0001112912999 -5.901507581e-14 -0.001569456266)
(0.0001128458097 -5.902418311e-14 -0.001569461574)
(0.0001153702321 -5.90391451e-14 -0.001569470194)
(0.000118767521 -5.905909442e-14 -0.001569481795)
(0.0001229071666 -5.908381423e-14 -0.00156949593)
(0.0001276300436 -5.911156981e-14 -0.001569512057)
(0.0001327546196 -5.914279483e-14 -0.001569529556)
(0.0001380840231 -5.917401985e-14 -0.001569547754)
(0.0001434134267 -5.920524487e-14 -0.001569565952)
(0.0001485380027 -5.923560253e-14 -0.001569583451)
(0.0001532608797 -5.926335811e-14 -0.001569599578)
(0.0001574005253 -5.928807792e-14 -0.001569613714)
(0.0001607978142 -5.930802724e-14 -0.001569625314)
(0.0001633222365 -5.932298923e-14 -0.001569633934)
(0.0001648767464 -5.933231337e-14 -0.001569639242)
(0.0001654016546 -5.93353426e-14 -0.001569641035)
(0.0001648767464 -5.933231337e-14 -0.001569639242)
(0.0001633222365 -5.932298923e-14 -0.001569633934)
(0.0001607978142 -5.930802724e-14 -0.001569625314)
(0.0001574005253 -5.928807792e-14 -0.001569613714)
(0.0001532608797 -5.926335811e-14 -0.001569599578)
(0.0001485380027 -5.923560253e-14 -0.001569583451)
(0.0001434134267 -5.920524487e-14 -0.001569565952)
(0.0001380840231 -5.917401985e-14 -0.001569547754)
(0.0001327546196 -5.914279483e-14 -0.001569529556)
(0.0001276300436 -5.911156981e-14 -0.001569512057)
(0.0001229071666 -5.908381423e-14 -0.00156949593)
(0.000118767521 -5.905909442e-14 -0.001569481795)
(0.0001153702321 -5.90391451e-14 -0.001569470194)
(0.0001128458097 -5.902418311e-14 -0.001569461574)
(0.0001112912999 -5.901507581e-14 -0.001569456266)
(0.000126817007 -6.733722505e-14 -0.001889107229)
(0.0001274015074 -6.734033903e-14 -0.001889109451)
(0.0001291324984 -6.734955475e-14 -0.001889116033)
(0.0001319435147 -6.736451674e-14 -0.001889126721)
(0.000135726493 -6.738446606e-14 -0.001889141106)
(0.0001403361065 -6.740918587e-14 -0.001889158633)
(0.0001455951649 -6.743737513e-14 -0.00188917863)
(0.0001513015265 -6.746860015e-14 -0.001889200328)
(0.0001572359695 -6.749982517e-14 -0.001889222892)
(0.0001631704125 -6.75310502e-14 -0.001889245457)
(0.0001688767741 -6.756140786e-14 -0.001889267155)
(0.0001741358324 -6.758959711e-14 -0.001889287152)
(0.000178745446 -6.761431692e-14 -0.001889304679)
(0.0001825284242 -6.763426624e-14 -0.001889319063)
(0.0001853394405 -6.764922823e-14 -0.001889329752)
(0.0001870704316 -6.765866079e-14 -0.001889336334)
(0.0001876549319 -6.766177364e-14 -0.001889338556)
(0.0001870704316 -6.765866079e-14 -0.001889336334)
(0.0001853394405 -6.764922823e-14 -0.001889329752)
(0.0001825284242 -6.763426624e-14 -0.001889319063)
(0.000178745446 -6.761431692e-14 -0.001889304679)
(0.0001741358324 -6.758959711e-14 -0.001889287152)
(0.0001688767741 -6.756140786e-14 -0.001889267155)
(0.0001631704125 -6.75310502e-14 -0.001889245457)
(0.0001572359695 -6.749982517e-14 -0.001889222892)
(0.0001513015265 -6.746860015e-14 -0.001889200328)
(0.0001455951649 -6.743737513e-14 -0.00188917863)
(0.0001403361065 -6.740918587e-14 -0.001889158633)
(0.000135726493 -6.738446606e-14 -0.001889141106)
(0.0001319435147 -6.736451674e-14 -0.001889126721)
(0.0001291324984 -6.734955475e-14 -0.001889116033)
(0.0001274015074 -6.734033903e-14 -0.001889109451)
(0.0001422810815 -7.533024959e-14 -0.002244820481)
(0.0001429311469 -7.533329429e-14 -0.00224482323)
(0.0001448563083 -7.534272685e-14 -0.002244831371)
(0.0001479826445 -7.535768884e-14 -0.002244844592)
(0.0001521899704 -7.537763816e-14 -0.002244862385)
(0.0001573166577 -7.540235797e-14 -0.002244884065)
(0.00016316564 -7.543054723e-14 -0.0022449088)
(0.0001695121008 -7.54604712e-14 -0.002244935639)
(0.0001761122275 -7.549256359e-14 -0.00224496355)
(0.0001827123543 -7.552465597e-14 -0.002244991461)
(0.0001890588151 -7.555544732e-14 -0.0022450183)
(0.0001949077973 -7.558363657e-14 -0.002245043035)
(0.0002000344846 -7.560835638e-14 -0.002245064715)
(0.0002042418105 -7.56283057e-14 -0.002245082508)
(0.0002073681467 -7.564370137e-14 -0.002245095729)
(0.0002092933081 -7.565291709e-14 -0.00224510387)
(0.0002099433736 -7.565604516e-14 -0.002245106619)
(0.0002092933081 -7.565291709e-14 -0.00224510387)
(0.0002073681467 -7.564370137e-14 -0.002245095729)
(0.0002042418105 -7.56283057e-14 -0.002245082508)
(0.0002000344846 -7.560835638e-14 -0.002245064715)
(0.0001949077973 -7.558363657e-14 -0.002245043035)
(0.0001890588151 -7.555544732e-14 -0.0022450183)
(0.0001827123543 -7.552465597e-14 -0.002244991461)
(0.0001761122275 -7.549256359e-14 -0.00224496355)
(0.0001695121008 -7.54604712e-14 -0.002244935639)
(0.00016316564 -7.543054723e-14 -0.0022449088)
(0.0001573166577 -7.540235797e-14 -0.002244884065)
(0.0001521899704 -7.537763816e-14 -0.002244862385)
(0.0001479826445 -7.535768884e-14 -0.002244844592)
(0.0001448563083 -7.534272685e-14 -0.002244831371)
(0.0001429311469 -7.533329429e-14 -0.00224482323)
(0.000157134702 -8.28260332e-14 -0.002639846117)
(0.0001578556462 -8.282925127e-14 -0.002639849498)
(0.0001599907141 -8.283846699e-14 -0.002639859511)
(0.0001634579248 -8.285342898e-14 -0.002639875773)
(0.0001681239889 -8.287381198e-14 -0.002639897657)
(0.0001738096554 -8.289896547e-14 -0.002639924323)
(0.000180296371 -8.292715473e-14 -0.002639954746)
(0.0001873348068 -8.295794607e-14 -0.002639987756)
(0.0001946545666 -8.299003845e-14 -0.002640022086)
(0.0002019743264 -8.302213084e-14 -0.002640056416)
(0.0002090127622 -8.305205482e-14 -0.002640089427)
(0.0002154994778 -8.308024407e-14 -0.00264011985)
(0.0002211851443 -8.310539756e-14 -0.002640146516)
(0.0002258512085 -8.312578056e-14 -0.0026401684)
(0.0002293184191 -8.314074255e-14 -0.002640184661)
(0.000231453487 -8.314995827e-14 -0.002640194675)
(0.0002321744312 -8.315309546e-14 -0.002640198056)
(0.000231453487 -8.314995827e-14 -0.002640194675)
(0.0002293184191 -8.314074255e-14 -0.002640184661)
(0.0002258512085 -8.312578056e-14 -0.0026401684)
(0.0002211851443 -8.310539756e-14 -0.002640146516)
(0.0002154994778 -8.308024407e-14 -0.00264011985)
(0.0002090127622 -8.305205482e-14 -0.002640089427)
(0.0002019743264 -8.302213084e-14 -0.002640056416)
(0.0001946545666 -8.299003845e-14 -0.002640022086)
(0.0001873348068 -8.295794607e-14 -0.002639987756)
(0.000180296371 -8.292715473e-14 -0.002639954746)
(0.0001738096554 -8.289896547e-14 -0.002639924323)
(0.0001681239889 -8.287381198e-14 -0.002639897657)
(0.0001634579248 -8.285342898e-14 -0.002639875773)
(0.0001599907141 -8.283846699e-14 -0.002639859511)
(0.0001578556462 -8.282925127e-14 -0.002639849498)
(0.0001713508193 -8.962860132e-14 -0.003077046887)
(0.0001721472646 -8.963175254e-14 -0.003077051014)
(0.0001745059281 -8.96411851e-14 -0.003077063235)
(0.0001783362435 -8.965614709e-14 -0.00307708308)
(0.0001834909627 -8.967653009e-14 -0.003077109788)
(0.0001897720623 -8.970168358e-14 -0.003077142332)
(0.0001969381012 -8.972987284e-14 -0.003077179461)
(0.0002047136394 -8.976066418e-14 -0.003077219748)
(0.0002127999632 -8.979275656e-14 -0.003077261645)
(0.0002208862871 -8.982484895e-14 -0.003077303543)
(0.0002286618253 -8.985564029e-14 -0.00307734383)
(0.0002358278641 -8.988382955e-14 -0.003077380959)
(0.0002421089638 -8.990898304e-14 -0.003077413503)
(0.000247263683 -8.992936604e-14 -0.00307744021)
(0.0002510939984 -8.994432803e-14 -0.003077460056)
(0.0002534526619 -8.995376059e-14 -0.003077472277)
(0.0002542491072 -8.995689137e-14 -0.003077476404)
(0.0002534526619 -8.995376059e-14 -0.003077472277)
(0.0002510939984 -8.994432803e-14 -0.003077460056)
(0.000247263683 -8.992936604e-14 -0.00307744021)
(0.0002421089638 -8.990898304e-14 -0.003077413503)
(0.0002358278641 -8.988382955e-14 -0.003077380959)
(0.0002286618253 -8.985564029e-14 -0.00307734383)
(0.0002208862871 -8.982484895e-14 -0.003077303543)
(0.0002127999632 -8.979275656e-14 -0.003077261645)
(0.0002047136394 -8.976066418e-14 -0.003077219748)
(0.0001969381012 -8.972987284e-14 -0.003077179461)
(0.0001897720623 -8.970168358e-14 -0.003077142332)
(0.0001834909627 -8.967653009e-14 -0.003077109788)
(0.0001783362435 -8.965614709e-14 -0.00307708308)
(0.0001745059281 -8.96411851e-14 -0.003077063235)
(0.0001721472646 -8.963175254e-14 -0.003077051014)
(0.0001848995509 -9.551351716e-14 -0.003558882087)
(0.0001857754105 -9.551658509e-14 -0.003558887078)
(0.0001883692585 -9.552601765e-14 -0.003558901857)
(0.0001925814981 -9.554119648e-14 -0.003558925858)
(0.000198250199 -9.556157948e-14 -0.003558958158)
(0.0002051575928 -9.558673297e-14 -0.003558997516)
(0.0002130381639 -9.561535591e-14 -0.003559042418)
(0.000221589008 -9.564571357e-14 -0.00355909114)
(0.0002304816265 -9.567780596e-14 -0.00355914181)
(0.000239374245 -9.570989834e-14 -0.003559192479)
(0.0002479250892 -9.574112336e-14 -0.003559241201)
(0.0002558056603 -9.57697463e-14 -0.003559286104)
(0.0002627130541 -9.579489979e-14 -0.003559325462)
(0.0002683817549 -9.581528279e-14 -0.003559357761)
(0.0002725939945 -9.583046162e-14 -0.003559381762)
(0.0002751878426 -9.583967734e-14 -0.003559396542)
(0.0002760637021 -9.584292893e-14 -0.003559401533)
(0.0002751878426 -9.583967734e-14 -0.003559396542)
(0.0002725939945 -9.583046162e-14 -0.003559381762)
(0.0002683817549 -9.581528279e-14 -0.003559357761)
(0.0002627130541 -9.579489979e-14 -0.003559325462)
(0.0002558056603 -9.57697463e-14 -0.003559286104)
(0.0002479250892 -9.574112336e-14 -0.003559241201)
(0.000239374245 -9.570989834e-14 -0.003559192479)
(0.0002304816265 -9.567780596e-14 -0.00355914181)
(0.000221589008 -9.564571357e-14 -0.00355909114)
(0.0002130381639 -9.561535591e-14 -0.003559042418)
(0.0002051575928 -9.558673297e-14 -0.003558997516)
(0.000198250199 -9.556157948e-14 -0.003558958158)
(0.0001925814981 -9.554119648e-14 -0.003558925858)
(0.0001883692585 -9.552601765e-14 -0.003558901857)
(0.0001857754105 -9.551658509e-14 -0.003558887078)
(0.0001977486752 -1.002315323e-13 -0.004087401342)
(0.0001987071494 -1.002347077e-13 -0.004087407318)
(0.0002015456596 -1.002440318e-13 -0.004087425017)
(0.0002061552147 -1.002592107e-13 -0.00408745376)
(0.0002123586103 -1.002800273e-13 -0.004087492441)
(0.0002199175373 -1.003047471e-13 -0.004087539574)
(0.0002285414357 -1.003333701e-13 -0.004087593347)
(0.00023789883 -1.003641614e-13 -0.004087651694)
(0.0002476302362 -1.003962538e-13 -0.004087712374)
(0.0002573616424 -1.004283462e-13 -0.004087773053)
(0.0002667190367 -1.004600049e-13 -0.0040878314)
(0.000275342935 -1.004886278e-13 -0.004087885174)
(0.0002829018621 -1.005133476e-13 -0.004087932307)
(0.0002891052577 -1.005341643e-13 -0.004087970988)
(0.0002937148128 -1.005493432e-13 -0.00408799973)
(0.000296553323 -1.005586673e-13 -0.004088017429)
(0.0002975117972 -1.00561886e-13 -0.004088023406)
(0.000296553323 -1.005586673e-13 -0.004088017429)
(0.0002937148128 -1.005493432e-13 -0.00408799973)
(0.0002891052577 -1.005341643e-13 -0.004087970988)
(0.0002829018621 -1.005133476e-13 -0.004087932307)
(0.000275342935 -1.004886278e-13 -0.004087885174)
(0.0002667190367 -1.004600049e-13 -0.0040878314)
(0.0002573616424 -1.004283462e-13 -0.004087773053)
(0.0002476302362 -1.003962538e-13 -0.004087712374)
(0.00023789883 -1.003641614e-13 -0.004087651694)
(0.0002285414357 -1.003333701e-13 -0.004087593347)
(0.0002199175374 -1.003047471e-13 -0.004087539574)
(0.0002123586103 -1.002800273e-13 -0.004087492441)
(0.0002061552147 -1.002592107e-13 -0.00408745376)
(0.0002015456596 -1.002440318e-13 -0.004087425017)
(0.0001987071494 -1.002347077e-13 -0.004087407318)
(0.0002098642446 -1.035131183e-13 -0.004664246694)
(0.0002109078318 -1.035163708e-13 -0.004664253779)
(0.000213998403 -1.03525695e-13 -0.004664274761)
(0.0002190172887 -1.035408738e-13 -0.004664308835)
(0.0002257715487 -1.035612568e-13 -0.004664354691)
(0.000234001712 -1.035864103e-13 -0.004664410567)
(0.0002433914165 -1.036150332e-13 -0.004664474316)
(0.0002535797517 -1.036462582e-13 -0.004664543486)
(0.0002641753113 -1.036783506e-13 -0.004664615421)
(0.0002747708708 -1.03710443e-13 -0.004664687356)
(0.000284959206 -1.03741668e-13 -0.004664756527)
(0.0002943489106 -1.03770291e-13 -0.004664820275)
(0.0003025790738 -1.037954445e-13 -0.004664876151)
(0.0003093333338 -1.038158275e-13 -0.004664922007)
(0.0003143522195 -1.0383144e-13 -0.004664956081)
(0.0003174427908 -1.03840981e-13 -0.004664977064)
(0.0003184863779 -1.038441567e-13 -0.004664984149)
(0.0003174427908 -1.03840981e-13 -0.004664977064)
(0.0003143522195 -1.0383144e-13 -0.004664956081)
(0.0003093333338 -1.038158275e-13 -0.004664922007)
(0.0003025790738 -1.037954445e-13 -0.004664876151)
(0.0002943489106 -1.03770291e-13 -0.004664820275)
(0.000284959206 -1.03741668e-13 -0.004664756527)
(0.0002747708708 -1.03710443e-13 -0.004664687356)
(0.0002641753113 -1.036783506e-13 -0.004664615421)
(0.0002535797517 -1.036462582e-13 -0.004664543486)
(0.0002433914165 -1.036150332e-13 -0.004664474316)
(0.000234001712 -1.035864103e-13 -0.004664410567)
(0.0002257715487 -1.035612568e-13 -0.004664354691)
(0.0002190172887 -1.035408738e-13 -0.004664308835)
(0.000213998403 -1.03525695e-13 -0.004664274761)
(0.0002109078318 -1.035163708e-13 -0.004664253779)
(0.0002212112667 -1.050734674e-13 -0.005290662906)
(0.000222341788 -1.050766462e-13 -0.005290671221)
(0.0002256898139 -1.050860787e-13 -0.005290695845)
(0.000231126789 -1.051012576e-13 -0.005290735833)
(0.0002384437008 -1.051220742e-13 -0.005290789647)
(0.0002473594634 -1.051472277e-13 -0.005290855221)
(0.0002575313608 -1.051758507e-13 -0.005290930033)
(0.0002685684173 -1.052075094e-13 -0.005291011208)
(0.0002800466214 -1.052396018e-13 -0.005291095628)
(0.0002915248255 -1.052716941e-13 -0.005291180048)
(0.0003025618821 -1.053024855e-13 -0.005291261223)
(0.0003127337794 -1.053311084e-13 -0.005291336036)
(0.000321649542 -1.053562619e-13 -0.005291401609)
(0.0003289664538 -1.053770786e-13 -0.005291455424)
(0.000334403429 -1.053922574e-13 -0.005291495412)
(0.0003377514548 -1.0540169e-13 -0.005291520036)
(0.0003388819762 -1.054048549e-13 -0.005291528351)
(0.0003377514548 -1.0540169e-13 -0.005291520036)
(0.000334403429 -1.053922574e-13 -0.005291495412)
(0.0003289664538 -1.053770786e-13 -0.005291455424)
(0.000321649542 -1.053562619e-13 -0.005291401609)
(0.0003127337794 -1.053311084e-13 -0.005291336036)
(0.0003025618821 -1.053024855e-13 -0.005291261223)
(0.0002915248255 -1.052716941e-13 -0.005291180048)
(0.0002800466214 -1.052396018e-13 -0.005291095628)
(0.0002685684173 -1.052075094e-13 -0.005291011208)
(0.0002575313608 -1.051758507e-13 -0.005290930033)
(0.0002473594634 -1.051472277e-13 -0.005290855221)
(0.0002384437008 -1.051220742e-13 -0.005290789647)
(0.000231126789 -1.051012576e-13 -0.005290735833)
(0.0002256898139 -1.050860787e-13 -0.005290695845)
(0.000222341788 -1.050766462e-13 -0.005290671221)
(0.0002317543776 -1.046174943e-13 -0.005967515628)
(0.0002329730155 -1.046206307e-13 -0.00596752529)
(0.0002365819974 -1.046300633e-13 -0.005967553902)
(0.0002424427481 -1.04645459e-13 -0.005967600367)
(0.0002503299639 -1.046662756e-13 -0.005967662898)
(0.0002599406502 -1.046914291e-13 -0.005967739093)
(0.0002709053784 -1.047200521e-13 -0.005967826023)
(0.0002828026992 -1.047512771e-13 -0.005967920346)
(0.000295175552 -1.047833695e-13 -0.00596801844)
(0.0003075484048 -1.048154619e-13 -0.005968116533)
(0.0003194457256 -1.048466869e-13 -0.005968210857)
(0.0003304104539 -1.048753098e-13 -0.005968297787)
(0.0003400211401 -1.049004633e-13 -0.005968373981)
(0.0003479083559 -1.0492128e-13 -0.005968436512)
(0.0003537691066 -1.04936242e-13 -0.005968482977)
(0.0003573780886 -1.049456745e-13 -0.00596851159)
(0.0003585967264 -1.049488199e-13 -0.005968521251)
(0.0003573780886 -1.049456745e-13 -0.00596851159)
(0.0003537691066 -1.04936242e-13 -0.005968482977)
(0.0003479083559 -1.0492128e-13 -0.005968436512)
(0.0003400211401 -1.049004633e-13 -0.005968373981)
(0.0003304104539 -1.048753098e-13 -0.005968297787)
(0.0003194457256 -1.048466869e-13 -0.005968210857)
(0.0003075484048 -1.048154619e-13 -0.005968116533)
(0.000295175552 -1.047833695e-13 -0.00596801844)
(0.0002828026992 -1.047512771e-13 -0.005967920346)
(0.0002709053784 -1.047200521e-13 -0.005967826023)
(0.0002599406502 -1.046914291e-13 -0.005967739093)
(0.0002503299639 -1.046662756e-13 -0.005967662898)
(0.0002424427481 -1.04645459e-13 -0.005967600367)
(0.0002365819974 -1.046300633e-13 -0.005967553902)
(0.0002329730155 -1.046206307e-13 -0.00596752529)
(0.0002414584648 -1.018443284e-13 -0.006695316789)
(0.0002427658126 -1.018475668e-13 -0.006695327908)
(0.0002466375079 -1.01856891e-13 -0.006695360838)
(0.000252924888 -1.018725035e-13 -0.006695414315)
(0.0002613862483 -1.018928865e-13 -0.006695486281)
(0.0002716965379 -1.0191804e-13 -0.006695573974)
(0.0002834594361 -1.019466629e-13 -0.006695674021)
(0.0002962228143 -1.019774543e-13 -0.006695782578)
(0.0003094963404 -1.020095466e-13 -0.006695895474)
(0.0003227698666 -1.02041639e-13 -0.00669600837)
(0.0003355332447 -1.020732977e-13 -0.006696116927)
(0.0003472961429 -1.021019207e-13 -0.006696216974)
(0.0003576064325 -1.021270742e-13 -0.006696304667)
(0.0003660677928 -1.021474572e-13 -0.006696376633)
(0.0003723551729 -1.02162636e-13 -0.00669643011)
(0.0003762268682 -1.021719601e-13 -0.00669646304)
(0.000377534216 -1.0217511e-13 -0.006696474159)
(0.0003762268682 -1.021719601e-13 -0.00669646304)
(0.0003723551729 -1.02162636e-13 -0.00669643011)
(0.0003660677928 -1.021474572e-13 -0.006696376633)
(0.0003576064325 -1.021270742e-13 -0.006696304667)
(0.0003472961429 -1.021019207e-13 -0.006696216974)
(0.0003355332447 -1.020732977e-13 -0.006696116927)
(0.0003227698666 -1.02041639e-13 -0.00669600837)
(0.0003094963404 -1.020095466e-13 -0.006695895474)
(0.0002962228143 -1.019774543e-13 -0.006695782578)
(0.0002834594361 -1.019466629e-13 -0.006695674021)
(0.0002716965379 -1.0191804e-13 -0.006695573974)