/*--------------------------------*- C++ -*----------------------------------*\
| =========                 |                                                 |
| \\      /  F ield         | OpenFOAM: The Open Source CFD Toolbox           |
|  \\    /   O peration     | Version:  2312                                  |
|   \\  /    A nd           | Website:  www.openfoam.com                      |
|    \\/     M anipulation  |                                                 |
\*---------------------------------------------------------------------------*/
FoamFile
{
    version     2.0;
    format      ascii;
    arch        "LSB;label=32;scalar=64";
    class       surfaceVectorField;
    location    "0.13/beam";
    object      Q;
}
// * * * * * * * * * * * * * * * * * * * * * * * * * * * * * * * * * * * * * //

dimensions      [1 1 -2 0 0 0 0];

oriented        oriented;

internalField   nonuniform List<vector> 
59
(
(0.06916972496 -1.323049939e-14 -0.0002552255751)
(0.06916964807 -1.334413436e-14 -0.000267665925)
(0.06916951797 -1.351322655e-14 -0.0002882426238)
(0.06916933183 -1.370817471e-14 -0.0003167225933)
(0.06916908599 -1.388921228e-14 -0.0003527850282)
(0.06916877614 -1.40080326e-14 -0.0003960269142)
(0.06916839769 -1.400980324e-14 -0.0004459701229)
(0.06916794602 -1.383550687e-14 -0.0005020700613)
(0.06916741691 -1.34245258e-14 -0.0005637258167)
(0.06916680686 -1.271736578e-14 -0.0006302916961)
(0.0691661134 -1.165839091e-14 -0.0007010900003)
(0.06916533542 -1.019841857e-14 -0.0007754248103)
(0.06916447331 -8.297001831e-15 -0.0008525964862)
(0.06916352912 -5.924210454e-15 -0.000931916504)
(0.06916250655 -3.061711883e-15 -0.001012722181)
(0.06916141087 2.970449796e-16 -0.001094390765)
(0.06916024866 4.1477259e-15 -0.00117635232)
(0.06915902754 8.477238836e-15 -0.001258100778)
(0.06915775581 1.326719469e-14 -0.001339202549)
(0.069156442 1.849873354e-14 -0.001419302077)
(0.06915509447 2.415865983e-14 -0.001498123827)
(0.06915372108 3.02467235e-14 -0.001575470278)
(0.06915232906 3.678300129e-14 -0.001651207252)
(0.06915092408 4.382031611e-14 -0.00172529582)
(0.06914951199 5.144424319e-14 -0.001797685305)
(0.06914809666 5.979302171e-14 -0.001868420774)
(0.06914668284 6.905010596e-14 -0.001937492492)
(0.06914527412 7.946354532e-14 -0.002004943179)
(0.06914387603 9.133039359e-14 -0.002070723525)
(0.0691424941 1.050132989e-13 -0.002134797201)
(0.06914113692 1.209124252e-13 -0.002197009969)
(0.06913981405 1.394794453e-13 -0.002257199995)
(0.06913853863 1.611732817e-13 -0.002315088215)
(0.06913732478 1.86474502e-13 -0.002370398595)
(0.06913618943 2.158233222e-13 -0.002422774132)
(0.06913514919 2.49640993e-13 -0.002471904796)
(0.06913422116 2.882518353e-13 -0.002517466639)
(0.06913341958 3.31921697e-13 -0.002559246147)
(0.06913275593 3.807697325e-13 -0.00259709178)
(0.0691322361 4.348362065e-13 -0.002631016805)
(0.06913186052 4.939929603e-13 -0.00266114784)
(0.06913162267 5.580521473e-13 -0.002687789471)
(0.06913150998 6.266847088e-13 -0.002711357646)
(0.06913150425 6.995761803e-13 -0.002732401111)
(0.06913158342 7.763571422e-13 -0.002751519442)
(0.06913172349 8.56800282e-13 -0.002769354573)
(0.06913190054 9.40753023e-13 -0.002786507571)
(0.06913209296 1.028351489e-12 -0.002803527516)
(0.06913228268 1.119923727e-12 -0.002820847131)
(0.06913245648 1.216176059e-12 -0.002838794981)
(0.06913260587 1.318013939e-12 -0.002857561032)
(0.0691327271 1.426648829e-12 -0.002877240522)
(0.06913281998 1.543284063e-12 -0.00289782196)
(0.06913288704 1.66912107e-12 -0.002919250116)
(0.06913293222 1.804911731e-12 -0.002941416517)
(0.06913296002 1.950938684e-12 -0.002964221825)
(0.06913297466 2.106570292e-12 -0.002987553234)
(0.06913297968 2.270459562e-12 -0.003011336372)
(0.06913297767 2.440452665e-12 -0.003035498471)
)
;

boundaryField
{
    left
    {
        type            calculated;
        value           uniform (-0.06916975039 -6.798599382e-12 0.0002510629848);
    }
    right
    {
        type            calculated;
        value           uniform (0.06913297018 -4.196536795e-12 -0.003060013117);
    }
    beam
    {
        type            empty;
        value           nonuniform List<vector> 0();
    }
}


// ************************************************************************* //
