/*--------------------------------*- C++ -*----------------------------------*\
| =========                 |                                                 |
| \\      /  F ield         | OpenFOAM: The Open Source CFD Toolbox           |
|  \\    /   O peration     | Version:  2312                                  |
|   \\  /    A nd           | Website:  www.openfoam.com                      |
|    \\/     M anipulation  |                                                 |
\*---------------------------------------------------------------------------*/
FoamFile
{
    version     2.0;
    format      ascii;
    arch        "LSB;label=32;scalar=64";
    class       volVectorField;
    location    "0.13/beam";
    object      Theta;
}
// * * * * * * * * * * * * * * * * * * * * * * * * * * * * * * * * * * * * * //

dimensions      [0 0 0 0 0 0 0];

internalField   nonuniform List<vector> 
60
(
(3.372401824e-14 0.00409817939 -1.640583877e-13)
(3.373308384e-14 0.00421515395 -1.638262145e-13)
(3.375044545e-14 0.00444417045 -1.632477377e-13)
(3.377459079e-14 0.004784900422 -1.620520692e-13)
(3.380334388e-14 0.005232308907 -1.598485891e-13)
(3.383398093e-14 0.005782319244 -1.561441344e-13)
(3.386336577e-14 0.006428551192 -1.503644565e-13)
(3.388809149e-14 0.007164434734 -1.418830376e-13)
(3.390467015e-14 0.007982139294 -1.300458901e-13)
(3.390967754e-14 0.008873438609 -1.142057764e-13)
(3.38999005e-14 0.009829444003 -9.375226971e-14)
(3.387251351e-14 0.01084103708 -6.813643749e-14)
(3.382516946e-14 0.01189890041 -3.689728184e-14)
(3.375606747e-14 0.01299379815 3.199230012e-16)
(3.366400308e-14 0.01411670821 4.375596567e-14)
(3.354836374e-14 0.01525903461 9.353962044e-14)
(3.340907498e-14 0.01641275256 1.497020864e-13)
(3.324647982e-14 0.01757056325 2.122049e-13)
(3.30612972e-14 0.01872600079 2.809894533e-13)
(3.285431918e-14 0.01987351471 3.560291774e-13)
(3.262629863e-14 0.02100850429 4.3740812e-13)
(3.237772396e-14 0.02212731123 5.254070483e-13)
(3.210858861e-14 0.02322710064 6.205901641e-13)
(3.181808416e-14 0.02430600517 7.239282929e-13)
(3.15045549e-14 0.02536260496 8.368592527e-13)
(3.116504597e-14 0.02639599488 9.614010404e-13)
(3.079530629e-14 0.0274055147 1.100204748e-12)
(3.038933127e-14 0.02839053259 1.25661867e-12)
(2.993938367e-14 0.02935023662 1.434654886e-12)
(2.943546892e-14 0.03028345431 1.639026066e-12)
(2.886707511e-14 0.0311885197 1.875024325e-12)
(2.821602943e-14 0.03206320649 2.148310289e-12)
(2.746624181e-14 0.03290474093 2.464908865e-12)
(2.659655237e-14 0.03370990264 2.830905456e-12)
(2.558270149e-14 0.03447521235 3.252163041e-12)
(2.439672682e-14 0.03519719619 3.734108875e-12)
(2.300759648e-14 0.03587270568 4.281435541e-12)
(2.13806985e-14 0.03649926301 4.897880573e-12)
(1.947866144e-14 0.03707539482 5.586026447e-12)
(1.72602977e-14 0.03760091366 6.347201096e-12)
(1.468037201e-14 0.03807710913 7.181473201e-12)
(1.168579563e-14 0.0385068178 8.087784297e-12)
(8.210965683e-15 0.03889435281 9.064216052e-12)
(4.166470005e-15 0.03924529402 1.010840078e-11)
(-5.759622964e-16 0.03956615025 1.121804753e-11)
(-6.209327004e-15 0.03986393733 1.239154103e-11)
(-1.302388658e-14 0.0401457011 1.362853888e-11)
(-2.145311977e-14 0.04041806737 1.493045976e-11)
(-3.212394736e-14 0.04068681685 1.630072989e-11)
(-4.591211776e-14 0.04095660549 1.774461801e-11)
(-6.397307693e-14 0.0412307037 1.92684982e-11)
(-8.772225072e-14 0.04151097907 2.087833898e-11)
(-1.186766844e-13 0.04179768789 2.257726625e-11)
(-1.580419535e-13 0.04208966331 2.436204844e-11)
(-2.058225092e-13 0.04238369921 2.621836485e-11)
(-2.591846141e-13 0.04267482645 2.81146936e-11)
(-3.097278813e-13 0.04295422042 2.999443249e-11)
(-3.395091497e-13 0.04320958119 3.176543229e-11)
(-3.162274601e-13 0.04341898683 3.328488242e-11)
(-1.896838783e-13 0.04355183618 3.433509013e-11)
)
;

boundaryField
{
    left
    {
        type            momentBeamRotationNR;
        value           uniform (3.372401824e-14 0.00409817939 -1.640583877e-13);
        momentSeries    
{
        file            "$FOAM_CASE/constant/beam/timeVsMoment";
        outOfBounds     clamp;
}
        moment          uniform (0 0 0);
    }
    right
    {
        type            momentBeamRotationNR;
        value           uniform (-1.896838783e-13 0.04355183618 3.433509013e-11);
        momentSeries    
{
        file            "$FOAM_CASE/constant/beam/timeVsMoment";
        outOfBounds     clamp;
}
        moment          uniform (0 0 0);
    }
    beam
    {
        type            empty;
    }
}


// ************************************************************************* //
