/*--------------------------------*- C++ -*----------------------------------*\
| =========                 |                                                 |
| \\      /  F ield         | OpenFOAM: The Open Source CFD Toolbox           |
|  \\    /   O peration     | Version:  2312                                  |
|   \\  /    A nd           | Website:  www.openfoam.com                      |
|    \\/     M anipulation  |                                                 |
\*---------------------------------------------------------------------------*/
FoamFile
{
    version     2.0;
    format      ascii;
    arch        "LSB;label=32;scalar=64";
    class       volVectorField;
    location    "0.13/beam";
    object      W;
}
// * * * * * * * * * * * * * * * * * * * * * * * * * * * * * * * * * * * * * //

dimensions      [0 1 0 0 0 0 0];

internalField   nonuniform List<vector> 
60
(
(9.964591077e-06 -3.274331806e-15 -9.170786277e-05)
(2.988318194e-05 -1.183360408e-14 -0.0002776636002)
(4.976924473e-05 -2.042136871e-14 -0.0004712112185)
(6.959863506e-05 -2.904565777e-14 -0.000677318623)
(8.934368231e-05 -3.769851422e-14 -0.0009008154177)
(0.000108972083 -4.635054007e-14 -0.00114634103)
(0.000128446079 -5.494632401e-14 -0.001418296267)
(0.0001477219672 -6.340099144e-14 -0.001720799241)
(0.0001667499717 -7.159800725e-14 -0.002057646544)
(0.0001854744833 -7.938828749e-14 -0.002432280556)
(0.0002038346499 -8.659084117e-14 -0.002847763616)
(0.0002217652766 -9.299465153e-14 -0.003306759674)
(0.0002391979765 -9.836179457e-14 -0.003811523945)
(0.0002560624959 -1.024316237e-13 -0.004363900803)
(0.0002722881266 -1.049256514e-13 -0.00496533004)
(0.0002878051162 -1.05552671e-13 -0.005616861216)
(0.0003025459878 -1.040136432e-13 -0.006319175663)
(0.000316446693 -1.000057951e-13 -0.007072615285)
(0.0003294475359 -9.322513607e-14 -0.007877217074)
(0.0003414938309 -8.336689346e-14 -0.008732751864)
(0.0003525362798 -7.012318564e-14 -0.009638765659)
(0.0003625310811 -5.317721307e-14 -0.01059462156)
(0.0003714393095 -3.219480689e-14 -0.0115994835)
(0.0003792287739 -6.80641158e-15 -0.01265257474)
(0.0003858701159 2.340586996e-14 -0.01375289039)
(0.0003913393596 5.893124628e-14 -0.0148994109)
(0.0003956160887 1.003590104e-13 -0.01609110301)
(0.0003986844133 1.484013363e-13 -0.01732688448)
(0.0004005320214 2.039278677e-13 -0.01860566112)
(0.000401151675 2.679879128e-13 -0.01992627544)
(0.0004005407654 3.418453295e-13 -0.02128752606)
(0.0003987032958 4.26989847e-13 -0.02268810721)
(0.0003956497666 5.251621456e-13 -0.02412662021)
(0.0003913992621 6.383521437e-13 -0.02560151671)
(0.00038597918 7.688075731e-13 -0.02711111651)
(0.0003794267765 9.190052772e-13 -0.02865356999)
(0.000371788108 1.0916424e-12 -0.03022689583)
(0.000363118387 1.289580788e-12 -0.03182897437)
(0.000353479696 1.515822817e-12 -0.03345761158)
(0.0003429398869 1.773434963e-12 -0.0351105648)
(0.0003315691684 2.065520146e-12 -0.03678562687)
(0.000319437942 2.395135984e-12 -0.03848067206)
(0.0003066130131 2.765283643e-12 -0.04019374203)
(0.0002931553438 3.178843251e-12 -0.04192308936)
(0.0002791169904 3.63860229e-12 -0.04366724161)
(0.0002645398659 4.147229558e-12 -0.04542501904)
(0.0002494542756 4.70735813e-12 -0.04719555937)
(0.000233879318 5.321603595e-12 -0.04897829713)
(0.0002178231992 5.992691933e-12 -0.05077294704)
(0.000201285153 6.723492919e-12 -0.05257944928)
(0.0001842570253 7.517139711e-12 -0.05439792503)
(0.0001667260986 8.376995807e-12 -0.05622860341)
(0.000148677256 9.306655168e-12 -0.05807176661)
(0.0001300962601 1.030969747e-11 -0.05992767011)
(0.0001109724329 1.138938966e-11 -0.0617964799)
(9.13029938e-05 1.254800665e-11 -0.06367817281)
(7.109781731e-05 1.378594717e-11 -0.0655724305)
(5.038771768e-05 1.510022723e-11 -0.06747845483)
(2.923619644e-05 1.64824053e-11 -0.06939470765)
(7.759375597e-06 1.791527759e-11 -0.07131846524)
)
;

boundaryField
{
    left
    {
        type            fixedValue;
        value           uniform (0 0 0);
    }
    right
    {
        type            fixedValue;
        value           uniform (-3.043072597e-06 1.864066931e-11 -0.07228190035);
    }
    beam
    {
        type            empty;
    }
}


// ************************************************************************* //
