/*--------------------------------*- C++ -*----------------------------------*\
| =========                 |                                                 |
| \\      /  F ield         | OpenFOAM: The Open Source CFD Toolbox           |
|  \\    /   O peration     | Version:  2312                                  |
|   \\  /    A nd           | Website:  www.openfoam.com                      |
|    \\/     M anipulation  |                                                 |
\*---------------------------------------------------------------------------*/
FoamFile
{
    version     2.0;
    format      ascii;
    arch        "LSB;label=32;scalar=64";
    class       volScalarField;
    location    "0.19";
    object      p;
}
// * * * * * * * * * * * * * * * * * * * * * * * * * * * * * * * * * * * * * //

dimensions      [1 -1 -2 0 0 0 0];

internalField   nonuniform List<scalar> 
299556
(
19.37475472
19.37476419
19.37477374
19.3747834
19.37479323
19.37480327
19.37481357
19.37482418
19.37483515
19.37484654
19.37485838
19.37487073
19.37488364
19.37489717
19.37491136
19.37492627
19.37494195
19.37495845
19.37497582
19.37499412
19.37501339
19.37503368
19.37505504
19.3750775
19.3751011
19.37512588
19.37515186
19.37517907
19.37520751
19.3752372
19.37526812
19.37530026
19.37533359
19.37536806
19.37540362
19.37544019
19.37547767
19.37551596
19.37555492
19.37559441
19.37563425
19.37567424
19.37571418
19.37575385
19.37579298
19.37583131
19.37586857
19.37590448
19.37593873
19.37597102
19.37600107
19.37602857
19.37605324
19.37607482
19.37609306
19.37610774
19.37611865
19.37612563
19.37612856
19.37612734
19.37612192
19.37611228
19.37609845
19.37608049
19.37605851
19.37603263
19.37600302
19.37596987
19.37593338
19.37589378
19.37585132
19.37580624
19.37575878
19.37570919
19.37565772
19.3756046
19.37555004
19.37549426
19.37543744
19.37537975
19.37532136
19.37526238
19.37520294
19.37514315
19.37508307
19.37502278
19.37496233
19.37490177
19.37484111
19.37478039
19.37476409
19.3747924
19.37482092
19.37484979
19.37487916
19.37490916
19.37493994
19.37497165
19.37500444
19.37503844
19.37507383
19.37511073
19.37514932
19.37518973
19.37523214
19.37527669
19.37532355
19.37537286
19.37542477
19.37547945
19.37553704
19.37559767
19.37566149
19.37572861
19.37579915
19.3758732
19.37595086
19.37603218
19.37611719
19.37620592
19.37629835
19.37639442
19.37649404
19.37659709
19.37670339
19.37681271
19.37692478
19.37703926
19.37715576
19.37727382
19.37739295
19.37751255
19.37763201
19.37775062
19.37786766
19.37798232
19.37809379
19.37820119
19.37830365
19.37840027
19.37849016
19.37857245
19.37864628
19.37871087
19.37876545
19.37880937
19.37884203
19.37886295
19.37887174
19.3788681
19.37885188
19.37882306
19.37878169
19.37872798
19.37866223
19.37858482
19.37849625
19.37839708
19.37828794
19.37816951
19.3780425
19.37790766
19.37776573
19.37761744
19.37746352
19.37730466
19.37714153
19.37697473
19.37680484
19.37663237
19.37645778
19.37628147
19.37610379
19.37592503
19.37574545
19.37556523
19.37538455
19.37520353
19.37502225
19.3748408
19.37477337
19.37482035
19.37486767
19.37491557
19.3749643
19.37501408
19.37506516
19.37511777
19.37517217
19.3752286
19.37528731
19.37534854
19.37541257
19.37547963
19.37555
19.37562393
19.37570168
19.3757835
19.37586965
19.37596039
19.37605595
19.37615657
19.37626247
19.37637386
19.37649092
19.37661383
19.37674271
19.37687767
19.37701877
19.37716605
19.37731946
19.37747893
19.3776443
19.37781537
19.37799184
19.37817333
19.37835939
19.37854947
19.3787429
19.37893895
19.37913677
19.37933539
19.37953378
19.37973079
19.37992519
19.38011565
19.38030082
19.38047925
19.38064947
19.38081001
19.38095937
19.38109611
19.38121881
19.38132614
19.38141687
19.38148987
19.38154418
19.38157896
19.3815936
19.38158758
19.38156067
19.3815128
19.3814441
19.38135488
19.38124565
19.38111706
19.38096993
19.3808052
19.3806239
19.38042719
19.38021623
19.37999227
19.37975654
19.37951026
19.37925465
19.37899085
19.37871996
19.378443
19.37816092
19.37787456
19.3775847
19.37729199
19.37699702
19.37670028
19.37640217
19.37610302
19.37580312
19.37550265
19.3752018
19.37490067
19.37478252
19.37484786
19.37491369
19.37498034
19.37504812
19.37511737
19.37518843
19.37526163
19.37533731
19.37541581
19.37549749
19.37558269
19.37567176
19.37576507
19.37586297
19.37596582
19.37607399
19.37618783
19.3763077
19.37643395
19.37656692
19.37670693
19.37685429
19.37700929
19.37717219
19.37734322
19.37752258
19.37771041
19.37790679
19.37811177
19.37832531
19.37854728
19.37877749
19.37901563
19.37926131
19.379514
19.37977306
19.38003773
19.3803071
19.38058013
19.38085564
19.3811323
19.38140865
19.3816831
19.38195393
19.38221931
19.38247733
19.38272598
19.38296322
19.38318697
19.38339517
19.38358579
19.38375685
19.38390651
19.38403302
19.38413484
19.38421059
19.38425914
19.3842796
19.38427127
19.38423381
19.38416715
19.38407144
19.38394714
19.38379495
19.38361578
19.38341077
19.38318123
19.38292864
19.38265456
19.38236067
19.38204866
19.38172028
19.38137723
19.3810212
19.38065378
19.38027652
19.37989084
19.37949804
19.37909932
19.37869574
19.37828822
19.37787757
19.37746447
19.37704949
19.3766331
19.37621566
19.37579746
19.37537873
19.37495966
19.37479146
19.37487478
19.37495871
19.37504368
19.37513011
19.37521841
19.37530901
19.37540235
19.37549884
19.37559894
19.37570309
19.37581172
19.3759253
19.37604428
19.37616912
19.37630028
19.37643822
19.3765834
19.37673626
19.37689727
19.37706684
19.37724541
19.37743335
19.37763105
19.37783883
19.378057
19.37828579
19.37852539
19.37877593
19.37903745
19.37930989
19.37959312
19.37988688
19.38019079
19.38050433
19.38082685
19.38115753
19.38149539
19.38183929
19.38218789
19.38253969
19.38289299
19.38324594
19.38359649
19.38394245
19.38428149
19.38461116
19.38492889
19.38523207
19.38551805
19.38578418
19.38602786
19.38624657
19.38643794
19.38659974
19.38672998
19.38682691
19.38688906
19.38691531
19.38690477
19.38685698
19.38677186
19.38664962
19.38649083
19.38629639
19.38606748
19.38580556
19.38551232
19.38518962
19.3848395
19.38446408
19.38406556
19.38364614
19.38320803
19.38275338
19.38228423
19.38180255
19.38131015
19.38080871
19.38029976
19.37978463
19.37926452
19.37874045
19.37821328
19.37768375
19.37715244
19.37661982
19.37608627
19.37555206
19.37501746
19.37480015
19.37490092
19.37500244
19.37510522
19.37520976
19.37531657
19.37542616
19.37553906
19.37565578
19.37577686
19.37590284
19.37603425
19.37617164
19.37631557
19.37646659
19.37662526
19.37679214
19.37696777
19.37715271
19.37734751
19.37755268
19.37776873
19.37799614
19.37823537
19.37848681
19.37875082
19.37902771
19.37931771
19.37962095
19.37993751
19.38026731
19.3806102
19.38096586
19.38133384
19.38171352
19.3821041
19.38250461
19.38291387
19.38333047
19.38375282
19.38417909
19.38460723
19.38503499
19.3854599
19.38587931
19.38629037
19.38669012
19.38707544
19.38744317
19.38779008
19.38811295
19.38840862
19.38867404
19.38890631
19.38910273
19.38926087
19.3893786
19.38945415
19.38948615
19.3894735
19.38941567
19.38931253
19.38916436
19.38897186
19.38873612
19.38845857
19.388141
19.38778546
19.38739423
19.38696977
19.38651467
19.38603161
19.38552327
19.38499232
19.38444137
19.38387291
19.38328933
19.38269282
19.38208543
19.38146898
19.38084511
19.38021526
19.37958067
19.37894239
19.37830128
19.37765806
19.37701328
19.37636741
19.37572079
19.37507371
19.37480852
19.37492614
19.37504463
19.37516458
19.37528658
19.37541124
19.37553915
19.37567092
19.37580715
19.37594848
19.37609552
19.3762489
19.37640927
19.37657727
19.37675356
19.37693877
19.37713357
19.3773386
19.3775545
19.37778192
19.37802145
19.3782737
19.37853923
19.37881855
19.37911216
19.37942048
19.37974384
19.38008253
19.38043673
19.38080649
19.38119176
19.38159236
19.38200791
19.38243789
19.3828816
19.3833381
19.38380625
19.38428467
19.38477174
19.3852656
19.3857641
19.38626487
19.38676525
19.38726237
19.38775311
19.38823417
19.38870205
19.38915311
19.38958364
19.38998985
19.39036798
19.3907143
19.39102524
19.39129739
19.39152758
19.39171296
19.39185104
19.39193971
19.39197738
19.39196275
19.39189521
19.39177461
19.39160127
19.39137602
19.39110013
19.39077532
19.39040366
19.38998758
19.38952975
19.38903307
19.38850059
19.38793543
19.38734076
19.38671971
19.38607534
19.38541057
19.38472818
19.38403077
19.3833207
19.38260012
19.38187096
19.38113487
19.38039331
19.37964749
19.37889843
19.37814696
19.37739372
19.37663924
19.37588392
19.37512809
19.37481654
19.37495027
19.375085
19.37522138
19.37536011
19.37550185
19.37564729
19.37579712
19.37595203
19.37611273
19.37627993
19.37645436
19.37663672
19.37682777
19.37702825
19.37723888
19.37746042
19.3776936
19.37793917
19.37819783
19.37847028
19.37875721
19.37905927
19.37937703
19.37971107
19.38006185
19.38042979
19.38081519
19.38121826
19.38163908
19.3820776
19.3825336
19.38300667
19.38349622
19.38400145
19.38452131
19.3850545
19.38559947
19.38615436
19.38671706
19.38728513
19.38785586
19.38842624
19.388993
19.38955257
19.39010117
19.39063484
19.39114941
19.39164063
19.39210418
19.39253575
19.3929311
19.39328611
19.39359689
19.39385982
19.39407163
19.39422946
19.39433092
19.39437415
19.3943577
19.39428084
19.39414342
19.39394582
19.39368897
19.39337434
19.3930039
19.39258004
19.39210552
19.39158342
19.39101707
19.39040994
19.38976562
19.38908773
19.38837985
19.38764548
19.38688796
19.38611046
19.38531593
19.38450709
19.38368638
19.38285598
19.38201778
19.38117344
19.38032434
19.37947161
19.3786162
19.37775884
19.37690011
19.37604047
19.37518028
19.37482415
19.37497318
19.3751233
19.37527529
19.37542989
19.37558784
19.37574992
19.37591689
19.37608953
19.37626862
19.37645496
19.37664935
19.3768526
19.37706553
19.37728897
19.37752374
19.37777067
19.3780306
19.37830433
19.37859267
19.3788964
19.37921629
19.37955305
19.37990736
19.38027982
19.38067099
19.38108131
19.38151114
19.38196072
19.38243014
19.38291935
19.3834281
19.38395596
19.38450228
19.38506615
19.38564643
19.38624166
19.38685012
19.38746976
19.3880982
19.38873274
19.38937035
19.39000768
19.39064105
19.39126649
19.39187979
19.39247648
19.39305193
19.39360135
19.39411992
19.3946028
19.39504522
19.39544259
19.39579051
19.39608495
19.39632221
19.39649909
19.39661289
19.39666156
19.39664343
19.39655772
19.39640424
19.39618342
19.39589632
19.3955446
19.39513046
19.39465659
19.39412611
19.39354248
19.39290942
19.39223086
19.3915108
19.39075332
19.38996243
19.38914204
19.3882959
19.38742757
19.38654034
19.38563725
19.38472101
19.38379407
19.38285854
19.38191625
19.38096873
19.38001727
19.37906287
19.37810637
19.37714841
19.37618947
19.37522996
19.3748313
19.3749947
19.37515932
19.37532597
19.37549548
19.37566868
19.3758464
19.37602949
19.37621879
19.37641517
19.37661951
19.37683267
19.37705556
19.37728907
19.37753411
19.37779159
19.37806241
19.37834749
19.37864772
19.378964
19.37929717
19.37964808
19.38001752
19.38040623
19.38081489
19.3812441
19.38169436
19.38216606
19.38265948
19.38317473
19.38371174
19.38427027
19.38484984
19.38544974
19.386069
19.38670636
19.38736023
19.38802873
19.38870961
19.38940027
19.39009774
19.39079871
19.39149947
19.392196
19.39288394
19.39355864
19.39421518
19.39484845
19.3954532
19.39602409
19.39655578
19.39704302
19.39748072
19.39786405
19.39818852
19.39845008
19.39864516
19.39877081
19.39882472
19.39880509
19.39871104
19.39854235
19.39829952
19.39798373
19.3975968
19.39714118
19.39661985
19.39603626
19.39539423
19.39469789
19.39395157
19.39315971
19.39232679
19.39145725
19.39055539
19.38962537
19.38867108
19.38769616
19.38670393
19.38569741
19.38467924
19.38365178
19.382617
19.38157658
19.38053193
19.37948415
19.37843413
19.37738256
19.37632997
19.37527679
19.37483796
19.37501473
19.37519281
19.3753731
19.37555648
19.37574386
19.37593613
19.37613421
19.37633902
19.37655149
19.37677256
19.3770032
19.37724436
19.37749702
19.37776216
19.37804076
19.37833382
19.37864231
19.37896722
19.3793095
19.37967009
19.38004989
19.38044977
19.38087053
19.38131292
19.38177758
19.38226507
19.38277583
19.38331014
19.38386813
19.38444976
19.38505476
19.38568261
19.38633258
19.3870036
19.38769431
19.38840303
19.3891277
19.38986591
19.39061483
19.39137126
19.3921316
19.39289186
19.39364765
19.39439425
19.39512661
19.39583938
19.39652702
19.39718381
19.39780393
19.39838158
19.39891104
19.39938676
19.39980348
19.40015631
19.40044081
19.40065312
19.40078999
19.40084893
19.40082797
19.40072613
19.40054321
19.40027973
19.39993699
19.399517
19.39902241
19.3984565
19.39782303
19.39712617
19.39637042
19.39556051
19.39470128
19.39379761
19.39285432
19.39187612
19.39086751
19.38983273
19.38877572
19.38770011
19.38660913
19.38550568
19.38439229
19.38327109
19.38214391
19.38101224
19.37987728
19.37873997
19.37760104
19.37646107
19.37532049
19.37484407
19.37503312
19.37522358
19.37541639
19.37561252
19.37581292
19.37601856
19.37623041
19.37644946
19.37667671
19.37691317
19.37715986
19.37741781
19.37768807
19.37797168
19.37826971
19.37858321
19.37891323
19.37926083
19.37962702
19.38001282
19.3804192
19.38084709
19.38129734
19.38177077
19.38226807
19.38278985
19.38333656
19.38390854
19.38450593
19.38512868
19.38577652
19.38644892
19.38714507
19.38786386
19.38860384
19.38936322
19.3901398
19.390931
19.39173381
19.3925448
19.39336011
19.39417547
19.39498617
19.39578716
19.396573
19.39733797
19.39807608
19.39878121
19.39944709
19.40006748
19.40063623
19.40114734
19.40159516
19.40197441
19.40228033
19.40250873
19.40265611
19.4027198
19.40269766
19.40258866
19.40239257
19.40210996
19.40174224
19.40129157
19.40076084
19.40015357
19.39947382
19.39872611
19.39791527
19.39704641
19.39612475
19.39515554
19.39414397
19.3930951
19.39201378
19.39090455
19.38977166
19.38861898
19.38744999
19.38626779
19.38507507
19.38387413
19.38266691
19.38145498
19.38023962
19.37902184
19.3778024
19.37658189
19.37536077
19.3748496
19.37504977
19.37525143
19.37545558
19.37566325
19.37587544
19.37609318
19.3763175
19.37654944
19.37679007
19.37704046
19.37730168
19.37757484
19.37786104
19.37816138
19.378477
19.37880901
19.37915854
19.37952669
19.37991456
19.38032321
19.38075368
19.38120695
19.38168396
19.38218553
19.38271244
19.38326532
19.38384467
19.38445084
19.385084
19.3857441
19.38643086
19.38714373
19.38788186
19.3886441
19.38942891
19.39023439
19.39105823
19.3918977
19.39274961
19.39361033
19.39447578
19.39534142
19.39620226
19.39705292
19.39788763
19.39870031
19.3994846
19.40023396
19.40094174
19.40160128
19.40220602
19.4027496
19.40322595
19.40362947
19.40395505
19.40419825
19.40435534
19.40442344
19.40440029
19.40428479
19.40407669
19.40377663
19.40338608
19.40290738
19.40234362
19.40169855
19.40097651
19.40018233
19.39932117
19.39839848
19.39741982
19.39639079
19.39531693
19.39420362
19.39305601
19.39187895
19.39067694
19.38945408
19.3882141
19.38696024
19.38569538
19.38442193
19.38314195
19.38185709
19.3805687
19.37927782
19.37798525
19.37669159
19.37539733
19.37485452
19.37506457
19.37527619
19.37549043
19.37570835
19.37593102
19.37615952
19.37639493
19.37663834
19.37689087
19.37715364
19.37742779
19.37771447
19.37801484
19.37833007
19.37866134
19.37900982
19.37937671
19.37976315
19.3801703
19.38059929
19.38105121
19.38152708
19.3820279
19.38255455
19.38310783
19.38368842
19.38429685
19.3849335
19.38559855
19.38629196
19.38701345
19.38776244
19.38853806
19.38933909
19.39016394
19.39101062
19.39187671
19.39275934
19.39365518
19.39456042
19.39547077
19.39638144
19.39728721
19.39818241
19.39906096
19.39991646
19.40074221
19.40153131
19.40227674
19.40297149
19.40360861
19.40418139
19.40468344
19.40510882
19.40545214
19.40570871
19.40587457
19.40594669
19.40592269
19.4058014
19.40558256
19.40526684
19.40485583
19.40435199
19.40375858
19.40307959
19.40231962
19.40148375
19.40057747
19.39960652
19.39857677
19.39749415
19.3963645
19.39519349
19.39398656
19.3927488
19.39148497
19.39019939
19.38889595
19.38757808
19.38624878
19.38491061
19.38356568
19.38221574
19.38086218
19.37950609
19.3781483
19.37678942
19.37542994
19.37485879
19.37507743
19.3752977
19.37552071
19.37574754
19.37597933
19.37621717
19.37646221
19.37671559
19.37697846
19.377252
19.37753739
19.37783582
19.37814852
19.37847669
19.37882156
19.37918437
19.37956634
19.37996869
19.38039262
19.38083931
19.38130988
19.38180543
19.38232697
19.38287544
19.38345168
19.3840564
19.38469016
19.38535337
19.38604621
19.38676865
19.3875204
19.38830089
19.3891092
19.38994408
19.39080388
19.39168653
19.39258952
19.39350987
19.39444411
19.39538828
19.39633789
19.39728798
19.39823309
19.39916729
19.40008426
19.40097729
19.40183939
19.40266335
19.40344183
19.40416748
19.40483306
19.40543151
19.40595615
19.40640076
19.4067597
19.40702804
19.40720165
19.40727735
19.40725265
19.40712631
19.40689808
19.40656866
19.40613972
19.40561385
19.40499446
19.40428575
19.40349253
19.40262015
19.40167434
19.40066111
19.39958664
19.39845712
19.39727865
19.39605718
19.39479837
19.39350757
19.39218973
19.39084935
19.3894905
19.38811676
19.38673124
19.38533658
19.38393501
19.38252832
19.38111796
19.37970503
19.37829039
19.37687467
19.37545835
19.37486239
19.37508828
19.37531584
19.37554623
19.37578058
19.37602005
19.37626578
19.37651894
19.37678072
19.37705232
19.37733493
19.37762979
19.37793814
19.37826123
19.37860031
19.37895666
19.37933155
19.37972626
19.38014203
19.38058011
19.38104172
19.38152804
19.38204019
19.38257923
19.38314613
19.38374176
19.38436685
19.38502201
19.38570765
19.38642397
19.38717095
19.38794829
19.38875541
19.38959138
19.3904549
19.39134427
19.39225738
19.39319162
19.39414392
19.3951107
19.39608786
19.39707078
19.3980543
19.39903279
19.40000011
19.40094969
19.40187461
19.40276761
19.40362121
19.4044278
19.40517975
19.40586953
19.40648984
19.40703373
19.40749473
19.40786699
19.40814538
19.40832562
19.4084044
19.40837912
19.40824852
19.40801234
19.4076713
19.40722713
19.40668254
19.40604109
19.40530714
19.40448568
19.40358228
19.40260291
19.40155381
19.40044138
19.39927206
19.39805219
19.39678792
19.39548515
19.3941494
19.3927858
19.39139902
19.38999326
19.38857222
19.38713912
19.38569669
19.38424721
19.38279253
19.38133414
19.37987317
19.37841048
19.37694672
19.37548237
19.3748653
19.37509703
19.37533049
19.37556685
19.37580727
19.37605293
19.37630503
19.37656476
19.37683332
19.37711196
19.37740191
19.37770442
19.37802078
19.37835226
19.37870016
19.37906579
19.37945044
19.37985543
19.38028204
19.38073157
19.38120525
19.38170429
19.38222986
19.38278305
19.38336484
19.38397615
19.38461773
19.3852902
19.38599398
19.38672931
19.38749615
19.38829421
19.38912289
19.38998126
19.39086798
19.39178132
19.3927191
19.39367867
19.39465689
19.39565006
19.396654
19.39766394
19.39867461
19.3996802
19.40067442
19.40165052
19.40260136
19.40351948
19.40439719
19.40522664
19.406
19.4067095
19.40734761
19.40790718
19.40838154
19.40876466
19.40905126
19.40923691
19.40931822
19.40929251
19.40915846
19.40891582
19.40856533
19.4081088
19.407549
19.40688962
19.40613514
19.40529074
19.40436214
19.4033555
19.40227725
19.401134
19.39993236
19.39867888
19.39737989
19.39604144
19.39466922
19.39326852
19.39184412
19.39040033
19.38894097
19.38746933
19.3859882
19.38449992
19.38300639
19.38150911
19.38000924
19.37850766
19.37700502
19.3755018
19.3748675
19.37510365
19.37534156
19.37558242
19.37582743
19.37607778
19.37633469
19.37659937
19.37687306
19.37715702
19.37745251
19.37776081
19.37808322
19.37842104
19.37877561
19.37914824
19.37954027
19.37995303
19.38038785
19.38084602
19.38132882
19.38183749
19.38237321
19.38293709
19.38353015
19.38415332
19.38480737
19.38549293
19.38621045
19.38696015
19.38774202
19.38855577
19.38940078
19.3902761
19.39118039
19.39211189
19.39306837
19.39404714
19.395045
19.39605819
19.39708242
19.39811287
19.39914414
19.4001703
19.40118494
19.40218117
19.40315169
19.4040889
19.40498493
19.40583177
19.40662139
19.40734588
19.40799753
19.40856903
19.40905356
19.40944496
19.40973781
19.4099276
19.41001084
19.4099848
19.40984815
19.40960061
19.40924296
19.40877703
19.40820569
19.40753269
19.40676263
19.4059008
19.40495307
19.40392572
19.40282535
19.4016587
19.40043255
19.39915356
19.39782823
19.39646272
19.39506287
19.39363403
19.39218112
19.39070853
19.38922013
19.38771929
19.38620885
19.3846912
19.38316825
19.38164153
19.38011223
19.37858122
19.37704914
19.37551651
19.37486897
19.37510808
19.37534897
19.37559286
19.37584094
19.37609443
19.37635456
19.37662257
19.3768997
19.37718722
19.37748643
19.3777986
19.37812506
19.37846714
19.37882617
19.3792035
19.37960048
19.38001845
19.38045877
19.38092273
19.38141165
19.38192677
19.3824693
19.38304035
19.38364097
19.38427209
19.3849345
19.38562885
19.38635558
19.38711493
19.38790688
19.38873115
19.38958713
19.39047383
19.39138992
19.39233361
19.39330265
19.39429432
19.39530536
19.396332
19.39736988
19.39841411
19.39945922
19.40049922
19.40152759
19.40253735
19.40352113
19.40447117
19.40537953
19.40623807
19.40703865
19.40777323
19.40843401
19.40901354
19.40950493
19.40990189
19.41019896
19.41039154
19.41047609
19.41044985
19.41031144
19.41006061
19.40969814
19.4092259
19.40864679
19.40796462
19.40718408
19.40631054
19.40534993
19.40430866
19.40319342
19.40201104
19.4007684
19.39947227
19.39812923
19.39674555
19.39532711
19.39387938
19.39240732
19.39091538
19.38940748
19.38788704
19.38635693
19.38481955
19.38327686
19.38173039
19.38018133
19.37863057
19.37707875
19.37552637
19.37486971
19.37511031
19.37535269
19.37559809
19.37584771
19.37610278
19.37636453
19.3766342
19.37691306
19.37720237
19.37750344
19.37781756
19.37814605
19.37849026
19.37885153
19.37923122
19.37963068
19.38005127
19.38049434
19.38096121
19.3814532
19.38197156
19.3825175
19.38309215
19.38369656
19.38433167
19.38499828
19.38569703
19.38642839
19.38719258
19.3879896
19.38881916
19.38968063
19.39057305
19.39149506
19.39244487
19.39342022
19.39441837
19.39543604
19.39646943
19.39751417
19.39856532
19.39961739
19.40066433
19.40169961
19.40271618
19.40370661
19.40466312
19.40557767
19.40644209
19.40724819
19.40798785
19.40865321
19.40923679
19.40973162
19.41013139
19.41043059
19.41062457
19.41070978
19.41068343
19.41054415
19.41029167
19.40992678
19.40945136
19.40886834
19.40818157
19.40739576
19.40651632
19.40554925
19.40450098
19.40337826
19.40218797
19.40093705
19.39963231
19.39828037
19.39688755
19.39545979
19.39400256
19.39252088
19.39101922
19.38950154
19.38797125
19.38643126
19.38488399
19.38333138
19.381775
19.38021602
19.37865534
19.37709361
19.37553133
19.37486971
19.37511031
19.37535269
19.37559809
19.37584771
19.37610278
19.37636453
19.3766342
19.37691306
19.37720237
19.37750344
19.37781756
19.37814605
19.37849026
19.37885153
19.37923122
19.37963068
19.38005127
19.38049434
19.38096121
19.3814532
19.38197156
19.3825175
19.38309215
19.38369656
19.38433167
19.38499828
19.38569703
19.38642839
19.38719258
19.3879896
19.38881916
19.38968063
19.39057305
19.39149506
19.39244487
19.39342022
19.39441837
19.39543604
19.39646943
19.39751417
19.39856532
19.39961739
19.40066433
19.40169961
19.40271618
19.40370661
19.40466312
19.40557767
19.40644209
19.40724819
19.40798785
19.40865321
19.40923679
19.40973162
19.41013139
19.41043059
19.41062457
19.41070978
19.41068343
19.41054415
19.41029167
19.40992678
19.40945136
19.40886834
19.40818157
19.40739576
19.40651632
19.40554925
19.40450098
19.40337826
19.40218797
19.40093705
19.39963231
19.39828037
19.39688755
19.39545979
19.39400256
19.39252088
19.39101922
19.38950154
19.38797125
19.38643126
19.38488399
19.38333138
19.381775
19.38021602
19.37865534
19.37709361
19.37553133
19.37486897
19.37510808
19.37534897
19.37559286
19.37584094
19.37609443
19.37635456
19.37662257
19.3768997
19.37718722
19.37748643
19.3777986
19.37812506
19.37846714
19.37882617
19.3792035
19.37960048
19.38001845
19.38045877
19.38092273
19.38141165
19.38192677
19.3824693
19.38304035
19.38364097
19.38427209
19.3849345
19.38562885
19.38635558
19.38711493
19.38790688
19.38873116
19.38958713
19.39047384
19.39138992
19.39233361
19.39330265
19.39429432
19.39530537
19.396332
19.39736988
19.39841411
19.39945922
19.40049922
19.40152759
19.40253736
19.40352113
19.40447118
19.40537953
19.40623807
19.40703865
19.40777323
19.40843401
19.40901354
19.40950493
19.40990189
19.41019896
19.41039154
19.41047609
19.41044985
19.41031144
19.41006061
19.40969814
19.4092259
19.40864679
19.40796462
19.40718408
19.40631053
19.40534993
19.40430866
19.40319342
19.40201104
19.4007684
19.39947227
19.39812923
19.39674555
19.39532711
19.39387938
19.39240732
19.39091538
19.38940748
19.38788704
19.38635693
19.38481955
19.38327686
19.38173039
19.38018133
19.37863057
19.37707875
19.37552637
19.3748675
19.37510365
19.37534156
19.37558242
19.37582743
19.37607778
19.37633469
19.37659937
19.37687307
19.37715702
19.37745251
19.37776081
19.37808322
19.37842104
19.37877561
19.37914824
19.37954027
19.37995303
19.38038785
19.38084602
19.38132882
19.38183749
19.38237321
19.38293709
19.38353015
19.38415332
19.38480737
19.38549293
19.38621045
19.38696015
19.38774202
19.38855577
19.38940078
19.3902761
19.39118039
19.39211189
19.39306837
19.39404715
19.395045
19.39605819
19.39708243
19.39811287
19.39914414
19.4001703
19.40118494
19.40218117
19.4031517
19.4040889
19.40498493
19.40583177
19.40662139
19.40734588
19.40799754
19.40856903
19.40905356
19.40944496
19.40973781
19.4099276
19.41001084
19.4099848
19.40984815
19.40960061
19.40924296
19.40877703
19.40820568
19.40753268
19.40676262
19.4059008
19.40495306
19.40392572
19.40282535
19.4016587
19.40043255
19.39915356
19.39782823
19.39646272
19.39506286
19.39363403
19.39218112
19.39070852
19.38922013
19.38771929
19.38620885
19.38469119
19.38316825
19.38164153
19.38011223
19.37858121
19.37704914
19.3755165
19.3748653
19.37509703
19.37533049
19.37556685
19.37580727
19.37605293
19.37630503
19.37656476
19.37683332
19.37711196
19.37740191
19.37770442
19.37802078
19.37835226
19.37870016
19.37906579
19.37945044
19.37985543
19.38028205
19.38073157
19.38120525
19.38170429
19.38222986
19.38278305
19.38336484
19.38397615
19.38461773
19.3852902
19.38599398
19.38672931
19.38749615
19.38829421
19.3891229
19.38998126
19.39086798
19.39178132
19.3927191
19.39367868
19.39465689
19.39565007
19.396654
19.39766395
19.39867461
19.39968021
19.40067442
19.40165052
19.40260136
19.40351948
19.40439719
19.40522665
19.406
19.4067095
19.40734761
19.40790718
19.40838154
19.40876466
19.40905126
19.40923691
19.40931822
19.40929251
19.40915846
19.40891582
19.40856533
19.4081088
19.407549
19.40688961
19.40613514
19.40529074
19.40436214
19.4033555
19.40227725
19.401134
19.39993236
19.39867888
19.39737988
19.39604143
19.39466922
19.39326851
19.39184411
19.39040033
19.38894097
19.38746932
19.38598819
19.38449992
19.38300638
19.38150911
19.38000924
19.37850766
19.37700502
19.3755018
19.37486239
19.37508828
19.37531584
19.37554623
19.37578058
19.37602005
19.37626578
19.37651894
19.37678072
19.37705232
19.37733493
19.37762979
19.37793814
19.37826123
19.37860031
19.37895666
19.37933156
19.37972626
19.38014203
19.38058011
19.38104173
19.38152804
19.38204019
19.38257923
19.38314613
19.38374176
19.38436686
19.38502202
19.38570765
19.38642397
19.38717095
19.3879483
19.38875542
19.38959138
19.3904549
19.39134428
19.39225738
19.39319162
19.39414392
19.39511071
19.39608787
19.39707078
19.39805431
19.39903279
19.40000011
19.4009497
19.40187462
19.40276761
19.40362121
19.4044278
19.40517975
19.40586953
19.40648984
19.40703373
19.40749473
19.40786699
19.40814538
19.40832562
19.4084044
19.40837912
19.40824852
19.40801234
19.40767129
19.40722713
19.40668254
19.40604109
19.40530713
19.40448568
19.40358228
19.40260291
19.40155381
19.40044138
19.39927206
19.39805218
19.39678792
19.39548515
19.3941494
19.39278579
19.39139902
19.38999326
19.38857222
19.38713912
19.38569669
19.38424721
19.38279253
19.38133414
19.37987316
19.37841048
19.37694671
19.37548237
19.37485879
19.37507743
19.3752977
19.37552071
19.37574754
19.37597933
19.37621717
19.37646221
19.37671559
19.37697847
19.377252
19.37753739
19.37783582
19.37814852
19.37847669
19.37882156
19.37918437
19.37956634
19.37996869
19.38039262
19.38083931
19.38130988
19.38180543
19.38232697
19.38287544
19.38345168
19.3840564
19.38469017
19.38535337
19.38604621
19.38676865
19.3875204
19.38830089
19.3891092
19.38994408
19.39080388
19.39168653
19.39258952
19.39350987
19.39444412
19.39538828
19.3963379
19.39728799
19.39823309
19.39916729
19.40008426
19.40097729
19.40183939
19.40266335
19.40344184
19.40416749
19.40483306
19.40543151
19.40595615
19.40640076
19.4067597
19.40702804
19.40720165
19.40727736
19.40725265
19.40712631
19.40689808
19.40656866
19.40613972
19.40561384
19.40499446
19.40428575
19.40349253
19.40262014
19.40167433
19.40066111
19.39958664
19.39845711
19.39727864
19.39605717
19.39479837
19.39350757
19.39218972
19.39084935
19.3894905
19.38811676
19.38673123
19.38533658
19.38393501
19.38252832
19.38111795
19.37970503
19.37829039
19.37687467
19.37545835
19.37485452
19.37506457
19.37527619
19.37549043
19.37570835
19.37593102
19.37615952
19.37639493
19.37663834
19.37689087
19.37715364
19.37742779
19.37771447
19.37801484
19.37833007
19.37866134
19.37900983
19.37937671
19.37976315
19.3801703
19.38059929
19.38105121
19.38152709
19.3820279
19.38255455
19.38310783
19.38368842
19.38429685
19.38493351
19.38559856
19.38629197
19.38701345
19.38776244
19.38853806
19.38933909
19.39016394
19.39101062
19.39187671
19.39275934
19.39365519
19.39456043
19.39547077
19.39638145
19.39728722
19.39818241
19.39906097
19.39991647
19.40074221
19.40153131
19.40227675
19.40297149
19.40360861
19.4041814
19.40468345
19.40510882
19.40545215
19.40570871
19.40587457
19.40594669
19.40592269
19.4058014
19.40558256
19.40526684
19.40485583
19.40435199
19.40375858
19.40307959
19.40231962
19.40148375
19.40057747
19.39960651
19.39857676
19.39749414
19.39636449
19.39519348
19.39398655
19.3927488
19.39148497
19.39019939
19.38889594
19.38757808
19.38624878
19.3849106
19.38356567
19.38221573
19.38086218
19.37950609
19.3781483
19.37678942
19.37542994
19.3748496
19.37504977
19.37525143
19.37545558
19.37566325
19.37587544
19.37609318
19.3763175
19.37654944
19.37679008
19.37704046
19.37730169
19.37757484
19.37786104
19.37816138
19.378477
19.37880902