/*--------------------------------*- C++ -*----------------------------------*\
| =========                 |                                                 |
| \\      /  F ield         | OpenFOAM: The Open Source CFD Toolbox           |
|  \\    /   O peration     | Version:  2312                                  |
|   \\  /    A nd           | Website:  www.openfoam.com                      |
|    \\/     M anipulation  |                                                 |
\*---------------------------------------------------------------------------*/
FoamFile
{
    version     2.0;
    format      ascii;
    arch        "LSB;label=32;scalar=64";
    class       surfaceVectorField;
    location    "0.19/beam";
    object      Gamma;
}
// * * * * * * * * * * * * * * * * * * * * * * * * * * * * * * * * * * * * * //

dimensions      [0 0 0 0 0 0 0];

oriented        oriented;

internalField   nonuniform List<vector> 
59
(
(0.001882910243 1.872741419e-16 -1.795819829e-08)
(0.001882910926 1.850830876e-16 -1.772718173e-08)
(0.001882912066 1.814185036e-16 -1.734872488e-08)
(0.001882913663 1.762631049e-16 -1.683275034e-08)
(0.00188291572 1.695974407e-16 -1.619305054e-08)
(0.001882918236 1.614036494e-16 -1.544676686e-08)
(0.001882921215 1.516731852e-16 -1.461420401e-08)
(0.001882924658 1.404109002e-16 -1.371915064e-08)
(0.001882928566 1.276435482e-16 -1.278760704e-08)
(0.001882932941 1.134280352e-16 -1.184764046e-08)
(0.001882937784 9.785794666e-17 -1.092933597e-08)
(0.001882943096 8.106857491e-17 -1.006349261e-08)
(0.001882948876 6.324632306e-17 -9.282224725e-09)
(0.001882955123 4.463266849e-17 -8.616983005e-09)
(0.001882961836 2.552497396e-17 -8.09942827e-09)
(0.001882969011 6.271691331e-18 -7.759698344e-09)
(0.001882976645 -1.27165436e-17 -7.626647846e-09)
(0.001882984731 -3.098493246e-17 -7.726618136e-09)
(0.001882993263 -4.805472855e-17 -8.083033739e-09)
(0.001883002232 -6.341968118e-17 -8.714701216e-09)
(0.001883011627 -7.657783209e-17 -9.634976196e-09)
(0.001883021437 -8.704754956e-17 -1.085005274e-08)
(0.001883031645 -9.439937403e-17 -1.235654984e-08)
(0.001883042239 -9.827797293e-17 -1.413960284e-08)
(0.001883053198 -9.842948806e-17 -1.616841032e-08)
(0.001883064506 -9.472800322e-17 -1.839652744e-08)
(0.001883076138 -8.720012574e-17 -2.075488266e-08)
(0.001883088079 -7.602587461e-17 -2.31543359e-08)
(0.001883100304 -6.156308334e-17 -2.547961823e-08)
(0.001883112797 -4.438280971e-17 -2.759507474e-08)
(0.001883125535 -2.514415712e-17 -2.934251785e-08)
(0.001883138506 -4.61907436e-18 -3.055162964e-08)
(0.001883151692 1.62161309e-17 -3.104504466e-08)
(0.001883165088 3.640912636e-17 -3.065317539e-08)
(0.00188317868 5.498285699e-17 -2.922811666e-08)
(0.00188319247 7.10408436e-17 -2.665955774e-08)
(0.001883206449 8.37860818e-17 -2.289504503e-08)
(0.001883220623 9.261144729e-17 -1.794905231e-08)
(0.001883234982 9.711704469e-17 -1.192241788e-08)
(0.001883249529 9.716022581e-17 -4.994260154e-09)
(0.001883264248 9.285745765e-17 2.570330495e-09)
(0.00188327913 8.457459962e-17 1.045305605e-08)
(0.001883294146 7.290442464e-17 1.829222584e-08)
(0.001883309271 5.859466132e-17 2.573562996e-08)
(0.001883324455 4.250290558e-17 3.246354475e-08)
(0.001883339656 2.548242268e-17 3.824088874e-08)
(0.001883354807 8.328805133e-18 4.293226451e-08)
(0.001883369848 -8.344552054e-18 4.652560953e-08)
(0.001883384702 -2.414328283e-17 4.911750642e-08)
(0.001883399303 -3.899018621e-17 5.089386435e-08)
(0.001883413573 -5.312453208e-17 5.208313785e-08)
(0.00188342745 -6.712992962e-17 5.291055767e-08)
(0.001883440866 -8.185826638e-17 5.354019362e-08)
(0.001883453774 -9.84146717e-17 5.401313571e-08)
(0.001883466123 -1.182460941e-16 5.413322317e-08)
(0.001883477883 -1.440086441e-16 5.318125809e-08)
(0.001883489025 -1.826810712e-16 4.909196848e-08)
(0.001883499537 -2.555582026e-16 3.60687949e-08)
(0.001883509406 -4.260694031e-16 -2.240667639e-09)
)
;

boundaryField
{
    left
    {
        type            calculated;
        value           uniform (-0.001882910015 -4.536022265e-14 1.803584127e-08);
    }
    right
    {
        type            calculated;
        value           uniform (0.001883518633 -4.604821387e-14 -1.123240862e-07);
    }
    beam
    {
        type            empty;
        value           nonuniform List<vector> 0();
    }
}


// ************************************************************************* //
