/*--------------------------------*- C++ -*----------------------------------*\
| =========                 |                                                 |
| \\      /  F ield         | OpenFOAM: The Open Source CFD Toolbox           |
|  \\    /   O peration     | Version:  2312                                  |
|   \\  /    A nd           | Website:  www.openfoam.com                      |
|    \\/     M anipulation  |                                                 |
\*---------------------------------------------------------------------------*/
FoamFile
{
    version     2.0;
    format      ascii;
    arch        "LSB;label=32;scalar=64";
    class       surfaceVectorField;
    location    "0.19/beam";
    object      K;
}
// * * * * * * * * * * * * * * * * * * * * * * * * * * * * * * * * * * * * * //

dimensions      [0 -1 0 0 0 0 0];

oriented        oriented;

internalField   nonuniform List<vector> 
59
(
(2.098386096e-17 -0.0001995830056 -2.080868299e-12)
(4.189881206e-17 -0.0003974542055 -4.145543254e-12)
(6.267353201e-17 -0.0005919458309 -6.177750456e-12)
(8.323149809e-17 -0.000781477768 -8.161053446e-12)
(1.034889708e-16 -0.0009646013993 -1.007881112e-11)
(1.233548987e-16 -0.001140039633 -1.191417696e-11)
(1.427314818e-16 -0.001306723018 -1.365015664e-11)
(1.615124408e-16 -0.001463826597 -1.526973724e-11)
(1.795882676e-16 -0.001610801491 -1.675607834e-11)
(1.968516388e-16 -0.001747398624 -1.809280216e-11)
(2.131966847e-16 -0.001873691373 -1.92643681e-11)
(2.285288681e-16 -0.001990090719 -2.025650368e-11)
(2.427649591e-16 -0.002097356492 -2.105672155e-11)
(2.558487336e-16 -0.00219660099 -2.165490358e-11)
(2.677468701e-16 -0.002289286461 -2.204392103e-11)
(2.78457482e-16 -0.002377217829 -2.222022639e-11)
(2.880222771e-16 -0.002462527131 -2.218448275e-11)
(2.965217564e-16 -0.002547652473 -2.194214943e-11)
(3.040693505e-16 -0.002635307919 -2.150386126e-11)
(3.108291898e-16 -0.002728441726 -2.088571806e-11)
(3.170025028e-16 -0.002830180515 -2.010940942e-11)
(3.228271969e-16 -0.00294375596 -1.920210644e-11)
(3.285662487e-16 -0.003072422135 -1.819597799e-11)
(3.345093765e-16 -0.00321933212 -1.712754457e-11)
(3.40942606e-16 -0.003387378867 -1.603676078e-11)
(3.481432253e-16 -0.003579030727 -1.49656595e-11)
(3.563457034e-16 -0.003796115296 -1.395682398e-11)
(3.657384208e-16 -0.004039583309 -1.30516925e-11)
(3.764177755e-16 -0.004309251713 -1.228872429e-11)
(3.883062973e-16 -0.004603546542 -1.170122369e-11)
(4.013291333e-16 -0.004919263951 -1.131567596e-11)
(4.153094207e-16 -0.005251378974 -1.115062904e-11)
(4.297693181e-16 -0.005592938014 -1.121493674e-11)
(4.442167667e-16 -0.005935063974 -1.150675902e-11)
(4.580560885e-16 -0.006267118361 -1.201355571e-11)
(4.706703524e-16 -0.006577031138 -1.271239726e-11)
(4.814231596e-16 -0.006851828828 -1.357096189e-11)
(4.897445771e-16 -0.007078327584 -1.45491426e-11)
(4.951279835e-16 -0.007243982316 -1.56012462e-11)
(4.971906394e-16 -0.00733780061 -1.667857229e-11)
(4.956582586e-16 -0.007351253102 -1.773227351e-11)
(4.903898351e-16 -0.007279045799 -1.871617957e-11)
(4.813591124e-16 -0.007119655864 -1.95894344e-11)
(4.686501098e-16 -0.006875519558 -2.031861776e-11)
(4.524652103e-16 -0.006552800118 -2.087921109e-11)
(4.330952816e-16 -0.006160737334 -2.125618518e-11)
(4.109452691e-16 -0.005710626335 -2.144365475e-11)
(3.864668257e-16 -0.005214579238 -2.144354928e-11)
(3.601841227e-16 -0.004684239968 -2.126338743e-11)
(3.325871198e-16 -0.004129684405 -2.091330366e-11)
(3.041339871e-16 -0.003558690746 -2.040253468e-11)
(2.751640996e-16 -0.002976519426 -1.973575342e-11)
(2.45922751e-16 -0.002386272034 -1.890967258e-11)
(2.164856808e-16 -0.001789909953 -1.791015225e-11)
(1.867479479e-16 -0.001190251951 -1.670890891e-11)
(1.561882157e-16 -0.0005951817297 -1.525493672e-11)
(1.235631892e-16 -2.799564469e-05 -1.344391863e-11)
(8.655378892e-17 0.0004444988182 -1.101509939e-11)
(4.29704237e-17 0.0006329108708 -7.238908121e-12)
)
;

boundaryField
{
    left
    {
        type            calculated;
        value           uniform (-1.272283299e-31 -9.283518049e-40 -7.00453359e-33);
    }
    right
    {
        type            calculated;
        value           uniform (-1.628944204e-31 2.403515434e-30 -1.486212835e-32);
    }
    beam
    {
        type            empty;
        value           nonuniform List<vector> 0();
    }
}


// ************************************************************************* //
