/*--------------------------------*- C++ -*----------------------------------*\
| =========                 |                                                 |
| \\      /  F ield         | OpenFOAM: The Open Source CFD Toolbox           |
|  \\    /   O peration     | Version:  2312                                  |
|   \\  /    A nd           | Website:  www.openfoam.com                      |
|    \\/     M anipulation  |                                                 |
\*---------------------------------------------------------------------------*/
FoamFile
{
    version     2.0;
    format      ascii;
    arch        "LSB;label=32;scalar=64";
    class       surfaceVectorField;
    location    "0.19/beam";
    object      M;
}
// * * * * * * * * * * * * * * * * * * * * * * * * * * * * * * * * * * * * * //

dimensions      [1 2 -2 0 0 0 0];

oriented        oriented;

internalField   nonuniform List<vector> 
59
(
(-7.313131153e-17 -1.203856748e-07 -1.252934511e-15)
(-1.45700347e-16 -2.397388124e-07 -2.496118314e-15)
(-2.171396766e-16 -3.57053438e-07 -3.719752009e-15)
(-2.868716244e-16 -4.713764489e-07 -4.913938864e-15)
(-3.543047523e-16 -5.818340596e-07 -6.068659268e-15)
(-4.188322608e-16 -6.876559462e-07 -7.173770339e-15)
(-4.798329792e-16 -7.881970303e-07 -8.219040694e-15)
(-5.366752635e-16 -8.829597099e-07 -9.194228228e-15)
(-5.887236788e-16 -9.716129082e-07 -1.008919521e-14)
(-6.353499969e-16 -1.054006386e-06 -1.089408292e-14)
(-6.759476095e-16 -1.130184405e-06 -1.15995371e-14)
(-7.099484734e-16 -1.20039486e-06 -1.219696731e-14)
(-7.368435408e-16 -1.265096073e-06 -1.267885813e-14)
(-7.562060077e-16 -1.324958965e-06 -1.303912069e-14)
(-7.677160322e-16 -1.380865544e-06 -1.327346596e-14)
(-7.711842987e-16 -1.433904513e-06 -1.337976091e-14)
(-7.66577058e-16 -1.48536189e-06 -1.335840736e-14)
(-7.540393251e-16 -1.536708305e-06 -1.321269452e-14)
(-7.339100287e-16 -1.589580843e-06 -1.294902717e-14)
(-7.067337227e-16 -1.645757851e-06 -1.257709999e-14)
(-6.732660311e-16 -1.707125264e-06 -1.210997264e-14)
(-6.344703194e-16 -1.775632382e-06 -1.156400455e-14)
(-5.914999022e-16 -1.853242018e-06 -1.095856376e-14)
(-5.456751463e-16 -1.941856064e-06 -1.031563787e-14)
(-4.984511437e-16 -2.043219509e-06 -9.65928166e-15)
(-4.513686951e-16 -2.158821228e-06 -9.014800787e-15)
(-4.060005841e-16 -2.289763601e-06 -8.407831834e-15)
(-3.63892377e-16 -2.436620098e-06 -7.863321546e-15)
(-3.26499161e-16 -2.599280304e-06 -7.404422424e-15)
(-2.951101398e-16 -2.776794824e-06 -7.051182584e-15)
(-2.707930194e-16 -2.967231146e-06 -6.819543525e-15)
(-2.543584686e-16 -3.167558278e-06 -6.720666655e-15)
(-2.462992906e-16 -3.373581909e-06 -6.759875343e-15)
(-2.467557554e-16 -3.579947498e-06 -6.936052917e-15)
(-2.555144219e-16 -3.780238056e-06 -7.241638836e-15)
(-2.72014271e-16 -3.967173104e-06 -7.662815989e-15)
(-2.953728606e-16 -4.132927224e-06 -8.180111404e-15)
(-3.244300387e-16 -4.269548102e-06 -8.769364458e-15)
(-3.578085881e-16 -4.369468717e-06 -9.403051689e-15)
(-3.939862164e-16 -4.426058599e-06 -1.005184051e-14)
(-4.313771938e-16 -4.434172954e-06 -1.068631236e-14)
(-4.684157028e-16 -4.390618519e-06 -1.127866382e-14)
(-5.036382084e-16 -4.294476742e-06 -1.180429508e-14)
(-5.357559402e-16 -4.14721714e-06 -1.224308754e-14)
(-5.637142131e-16 -3.952557292e-06 -1.258028609e-14)
(-5.867303823e-16 -3.716070509e-06 -1.280685226e-14)
(-6.043068835e-16 -3.444569856e-06 -1.291925511e-14)
(-6.162136831e-16 -3.145361193e-06 -1.291866956e-14)
(-6.224390043e-16 -2.825467969e-06 -1.280963503e-14)
(-6.231086732e-16 -2.490967818e-06 -1.259826398e-14)
(-6.183777044e-16 -2.146552437e-06 -1.229012552e-14)
(-6.083057241e-16 -1.795394847e-06 -1.188803775e-14)
(-5.92730073e-16 -1.439365883e-06 -1.139002285e-14)
(-5.711442131e-16 -1.079648625e-06 -1.078756623e-14)
(-5.425451616e-16 -7.179433134e-07 -1.006363628e-14)
(-5.050620992e-16 -3.590052868e-07 -9.187521322e-15)
(-4.547278583e-16 -1.688658094e-08 -8.096415501e-15)
(-3.814707293e-16 2.681154642e-07 -6.633332494e-15)
(-2.570842765e-16 3.817629765e-07 -4.359038793e-15)
)
;

boundaryField
{
    left
    {
        type            calculated;
        value           uniform (-1.534330041e-34 -5.711425362e-43 5.799798258e-36);
    }
    right
    {
        type            calculated;
        value           uniform (-1.967041597e-34 1.449766861e-33 2.094876508e-36);
    }
    beam
    {
        type            empty;
        value           nonuniform List<vector> 0();
    }
}


// ************************************************************************* //
