/*--------------------------------*- C++ -*----------------------------------*\
| =========                 |                                                 |
| \\      /  F ield         | OpenFOAM: The Open Source CFD Toolbox           |
|  \\    /   O peration     | Version:  2312                                  |
|   \\  /    A nd           | Website:  www.openfoam.com                      |
|    \\/     M anipulation  |                                                 |
\*---------------------------------------------------------------------------*/
FoamFile
{
    version     2.0;
    format      ascii;
    arch        "LSB;label=32;scalar=64";
    class       pointVectorField;
    location    "0.19/beam";
    object      pointW;
}
// * * * * * * * * * * * * * * * * * * * * * * * * * * * * * * * * * * * * * //

dimensions      [0 1 0 0 0 0 0];

internalField   nonuniform List<vector> 
1952
(
(-0.0002610252693 -3.801837687e-15 8.525856511e-06)
(-0.0002560096686 -3.728788112e-15 8.362032175e-06)
(-0.0002411560256 -3.512381358e-15 7.876868308e-06)
(-0.0002170346805 -3.161099854e-15 7.088993905e-06)
(-0.0001845729254 -2.688387707e-15 6.028697072e-06)
(-0.0001450178086 -2.112025832e-15 4.736710089e-06)
(-9.988980233e-05 -1.454999315e-15 3.26269607e-06)
(-5.092348475e-05 -7.41594286e-16 1.663311463e-06)
(2.907301054e-13 0 -1.520254264e-14)
(5.092348532e-05 7.41594286e-16 -1.663311493e-06)
(9.988980287e-05 1.454999315e-15 -3.262696098e-06)
(0.0001450178091 2.112025832e-15 -4.736710114e-06)
(0.0001845729258 2.688387707e-15 -6.028697094e-06)
(0.0002170346808 3.161099854e-15 -7.088993922e-06)
(0.0002411560259 3.512381358e-15 -7.876868319e-06)
(0.0002560096688 3.728788112e-15 -8.362032181e-06)
(0.0002610252693 3.801837687e-15 -8.525856511e-06)
(0.0002560096686 3.728788112e-15 -8.362032175e-06)
(0.0002411560256 3.512381358e-15 -7.876868308e-06)
(0.0002170346805 3.161099854e-15 -7.088993905e-06)
(0.0001845729254 2.688387707e-15 -6.028697072e-06)
(0.0001450178086 2.112025832e-15 -4.736710089e-06)
(9.988980233e-05 1.454999315e-15 -3.26269607e-06)
(5.092348475e-05 7.41594286e-16 -1.663311463e-06)
(-2.907300806e-13 0 1.520254183e-14)
(-5.092348532e-05 -7.41594286e-16 1.663311493e-06)
(-9.988980287e-05 -1.454999315e-15 3.262696098e-06)
(-0.0001450178091 -2.112025832e-15 4.736710114e-06)
(-0.0001845729258 -2.688387707e-15 6.028697094e-06)
(-0.0002170346808 -3.161099854e-15 7.088993922e-06)
(-0.0002411560259 -3.512381358e-15 7.876868319e-06)
(-0.0002560096688 -3.728788112e-15 8.362032181e-06)
(-0.000272183791 3.224394031e-12 -0.002886041899)
(-0.0002671685293 3.224467026e-12 -0.002886205701)
(-0.0002523158898 3.224683324e-12 -0.002886690799)
(-0.0002281961743 3.225034389e-12 -0.002887478567)
(-0.0001957366124 3.225507101e-12 -0.002888538721)
(-0.0001561841681 3.226083029e-12 -0.002889830533)
(-0.0001110592108 3.226740056e-12 -0.002891304347)
(-6.209620145e-05 3.227453027e-12 -0.002892903516)
(-1.117615691e-05 3.228194621e-12 -0.002894566602)
(3.974388762e-05 3.228936216e-12 -0.002896229689)
(8.87068969e-05 3.229649187e-12 -0.002897828857)
(0.0001338318542 3.230306213e-12 -0.002899302672)
(0.0001733842984 3.230882142e-12 -0.002900594484)
(0.0002058438603 3.231354854e-12 -0.002901654638)
(0.0002299635757 3.231705918e-12 -0.002902442405)
(0.000244816215 3.231922e-12 -0.002902927504)
(0.0002498314766 3.23199513e-12 -0.002903091306)
(0.0002448162149 3.231922e-12 -0.002902927504)
(0.0002299635754 3.231705918e-12 -0.002902442405)
(0.0002058438599 3.231354854e-12 -0.002901654637)
(0.000173384298 3.230882142e-12 -0.002900594484)
(0.0001338318537 3.230306213e-12 -0.002899302672)
(8.870689637e-05 3.229649187e-12 -0.002897828857)
(3.974388705e-05 3.228936216e-12 -0.002896229689)
(-1.117615749e-05 3.228194621e-12 -0.002894566602)
(-6.209620202e-05 3.227453027e-12 -0.002892903516)
(-0.0001110592113 3.226740056e-12 -0.002891304347)
(-0.0001561841686 3.226083029e-12 -0.002889830533)
(-0.0001957366129 3.225507101e-12 -0.002888538721)
(-0.0002281961747 3.225034389e-12 -0.002887478567)
(-0.0002523158901 3.224683324e-12 -0.002886690799)
(-0.0002671685294 3.224467026e-12 -0.002886205701)
(-0.0002832816495 6.447513982e-12 -0.005780221644)
(-0.0002782674014 6.447586822e-12 -0.00578038538)
(-0.000263417764 6.447803229e-12 -0.005780870282)
(-0.0002393029236 6.448154077e-12 -0.005781657731)
(-0.0002068499225 6.448626355e-12 -0.005782717456)
(-0.0001673054725 6.449201416e-12 -0.005784008745)
(-0.0001221896359 6.449858009e-12 -0.005785481964)
(-7.3236523e-05 6.450569245e-12 -0.005787080485)
(-2.232677046e-05 6.451309972e-12 -0.005788742898)
(2.858298206e-05 6.452050699e-12 -0.005790405312)
(7.75360949e-05 6.452763671e-12 -0.005792003833)
(0.0001226519315 6.453420263e-12 -0.005793477052)
(0.0001621963814 6.453995324e-12 -0.005794768341)
(0.0001946493824 6.454467603e-12 -0.005795828066)
(0.0002187642227 6.454818451e-12 -0.005796615515)
(0.0002336138601 6.455034424e-12 -0.005797100417)
(0.000238628108 6.455107384e-12 -0.005797264153)
(0.0002336138599 6.455034424e-12 -0.005797100417)
(0.0002187642225 6.454818451e-12 -0.005796615515)
(0.0001946493821 6.454467603e-12 -0.005795828066)
(0.000162196381 6.453995324e-12 -0.005794768341)
(0.000122651931 6.453420263e-12 -0.005793477052)
(7.753609436e-05 6.452763671e-12 -0.005792003833)
(2.858298149e-05 6.452050699e-12 -0.005790405312)
(-2.232677104e-05 6.451309972e-12 -0.005788742898)
(-7.323652357e-05 6.450569245e-12 -0.005787080485)
(-0.0001221896364 6.449858009e-12 -0.005785481964)
(-0.000167305473 6.449201416e-12 -0.005784008745)
(-0.0002068499229 6.448626355e-12 -0.005782717456)
(-0.0002393029239 6.448154077e-12 -0.005781657731)
(-0.0002634177642 6.447803229e-12 -0.005780870282)
(-0.0002782674016 6.447586822e-12 -0.00578038538)
(-0.0002942939817 9.662511308e-12 -0.008673626376)
(-0.0002892814135 9.662584101e-12 -0.008673790002)
(-0.000274436751 9.662800074e-12 -0.008674274579)
(-0.0002503299895 9.663150054e-12 -0.0086750615)
(-0.0002178878607 9.663621466e-12 -0.008676120514)
(-0.0001783566589 9.664195659e-12 -0.008677410937)
(-0.0001332559369 9.664850951e-12 -0.008678883168)
(-8.431922421e-05 9.665561754e-12 -0.008680480617)
(-3.342652738e-05 9.666301613e-12 -0.008682141916)
(1.746616944e-05 9.667041473e-12 -0.008683803215)
(6.640288207e-05 9.667752276e-12 -0.008685400664)
(0.000111503604 9.668407568e-12 -0.008686872894)
(0.0001510348058 9.668981761e-12 -0.008688163318)
(0.0001834769345 9.669453172e-12 -0.008689222332)
(0.0002075836959 9.669803586e-12 -0.008690009253)
(0.0002224283583 9.670019126e-12 -0.008690493829)
(0.0002274409264 9.670091987e-12 -0.008690657456)
(0.0002224283582 9.670019126e-12 -0.008690493829)
(0.0002075836956 9.669803586e-12 -0.008690009253)
(0.0001834769342 9.669453172e-12 -0.008689222332)
(0.0001510348054 9.668981761e-12 -0.008688163318)
(0.0001115036035 9.668407568e-12 -0.008686872894)
(6.640288154e-05 9.667752276e-12 -0.008685400664)
(1.746616887e-05 9.667041473e-12 -0.008683803214)
(-3.342652796e-05 9.666301613e-12 -0.008682141916)
(-8.431922477e-05 9.665561754e-12 -0.008680480617)
(-0.0001332559374 9.664850951e-12 -0.008678883168)
(-0.0001783566593 9.664195659e-12 -0.008677410937)
(-0.0002178878611 9.663621466e-12 -0.008676120514)
(-0.0002503299898 9.663150054e-12 -0.0086750615)
(-0.0002744367512 9.662800074e-12 -0.008674274579)
(-0.0002892814136 9.662584101e-12 -0.008673790002)
(-0.0003051966619 1.286540311e-11 -0.01156587565)
(-0.0003001864256 1.286547583e-11 -0.01156603912)
(-0.0002853486689 1.286569093e-11 -0.01156652325)
(-0.0002612531221 1.28660407e-11 -0.01156730944)
(-0.0002288260857 1.286651081e-11 -0.01156836747)
(-0.0001893132741 1.286708413e-11 -0.01156965669)
(-0.0001442335333 1.286773769e-11 -0.01157112755)
(-9.531958641e-05 1.286844589e-11 -0.01157272351)
(-4.445056529e-05 1.286918402e-11 -0.01157438326)
(6.418455822e-06 1.286992214e-11 -0.01157604301)
(5.533240269e-05 1.287063208e-11 -0.01157763898)
(0.0001004121434 1.287128563e-11 -0.01157910983)
(0.0001399249549 1.287185896e-11 -0.01158039906)
(0.0001723519913 1.287232907e-11 -0.01158145708)
(0.000196447538 1.28726784e-11 -0.01158224327)
(0.0002112852945 1.287289351e-11 -0.0115827274)
(0.0002162955307 1.287296619e-11 -0.01158289087)
(0.0002112852944 1.287289351e-11 -0.0115827274)
(0.0001964475378 1.28726784e-11 -0.01158224327)
(0.000172351991 1.287232907e-11 -0.01158145708)
(0.0001399249545 1.287185896e-11 -0.01158039906)
(0.0001004121429 1.287128563e-11 -0.01157910983)
(5.533240216e-05 1.287063208e-11 -0.01157763898)
(6.418455257e-06 1.286992214e-11 -0.01157604301)
(-4.445056586e-05 1.286918402e-11 -0.01157438326)
(-9.531958697e-05 1.286844589e-11 -0.01157272351)
(-0.0001442335338 1.286773769e-11 -0.01157112755)
(-0.0001893132745 1.286708413e-11 -0.01156965669)
(-0.0002288260861 1.286651081e-11 -0.01156836747)
(-0.0002612531224 1.28660407e-11 -0.01156730944)
(-0.0002853486691 1.286569093e-11 -0.01156652325)
(-0.0003001864257 1.286547583e-11 -0.01156603912)
(-0.0003159664916 1.605230259e-11 -0.01445659866)
(-0.0003109592199 1.605237503e-11 -0.01445676194)
(-0.000296130243 1.60525896e-11 -0.01445724549)
(-0.0002720489538 1.605293806e-11 -0.01445803075)
(-0.0002396411048 1.605340687e-11 -0.01445908752)
(-0.0002001516735 1.605397846e-11 -0.01446037522)
(-0.000155098607 1.605463028e-11 -0.01446184434)
(-0.0001062136031 1.605533761e-11 -0.01446343841)
(-5.537468181e-05 1.605607314e-11 -0.01446509619)
(-4.535760541e-06 1.605680866e-11 -0.01446675398)
(4.434924332e-05 1.605751599e-11 -0.01446834805)
(8.940230977e-05 1.605816782e-11 -0.01446981717)
(0.0001288917411 1.605873941e-11 -0.01447110487)
(0.0001612995899 1.605920822e-11 -0.01447216164)
(0.000185380879 1.605955625e-11 -0.0144729469)
(0.0002002098559 1.605977103e-11 -0.01447343045)
(0.0002052171274 1.605984341e-11 -0.01447359373)
(0.0002002098558 1.605977103e-11 -0.01447343045)
(0.0001853808788 1.605955625e-11 -0.0144729469)
(0.0001612995896 1.605920822e-11 -0.01447216164)
(0.0001288917407 1.605873941e-11 -0.01447110487)
(8.940230929e-05 1.605816782e-11 -0.01446981717)
(4.43492428e-05 1.605751599e-11 -0.01446834805)
(-4.535761103e-06 1.605680866e-11 -0.01446675398)
(-5.537468238e-05 1.605607314e-11 -0.01446509619)
(-0.0001062136036 1.605533761e-11 -0.01446343841)
(-0.0001550986075 1.605463028e-11 -0.01446184434)
(-0.000200151674 1.605397846e-11 -0.01446037522)
(-0.0002396411053 1.605340687e-11 -0.01445908752)
(-0.0002720489541 1.605293806e-11 -0.01445803075)
(-0.0002961302432 1.60525896e-11 -0.01445724549)
(-0.0003109592201 1.605237503e-11 -0.01445676194)
(-0.0003265813663 1.921945175e-11 -0.01734543705)
(-0.0003215776681 1.921952398e-11 -0.0173456001)
(-0.0003067592738 1.921973756e-11 -0.01734608296)
(-0.0002826951701 1.922008516e-11 -0.01734686709)
(-0.0002503104489 1.922055223e-11 -0.01734792236)
(-0.0002108491991 1.922112166e-11 -0.01734920821)
(-0.0001658282845 1.922177131e-11 -0.01735067523)
(-0.0001169781673 1.922247604e-11 -0.01735226703)
(-6.617552703e-05 1.922320896e-11 -0.01735392245)
(-1.53728868e-05 1.922394188e-11 -0.01735557787)
(3.347723044e-05 1.922464661e-11 -0.01735716966)
(7.84981449e-05 1.922529627e-11 -0.01735863668)
(0.0001179593947 1.922586569e-11 -0.01735992254)
(0.0001503441158 1.922633277e-11 -0.0173609778)
(0.0001744082193 1.922667993e-11 -0.01736176194)
(0.0001892266136 1.922689373e-11 -0.0173622448)
(0.0001942303117 1.92269659e-11 -0.01736240785)
(0.0001892266134 1.922689373e-11 -0.0173622448)
(0.0001744082191 1.922667993e-11 -0.01736176194)
(0.0001503441155 1.922633277e-11 -0.0173609778)
(0.0001179593943 1.922586569e-11 -0.01735992254)
(7.849814443e-05 1.922529627e-11 -0.01735863668)
(3.347722991e-05 1.922464661e-11 -0.01735716966)
(-1.537288736e-05 1.922394188e-11 -0.01735557787)
(-6.61755276e-05 1.922320896e-11 -0.01735392245)
(-0.0001169781678 1.922247604e-11 -0.01735226703)
(-0.0001658282851 1.922177131e-11 -0.01735067523)
(-0.0002108491995 1.922112166e-11 -0.01734920821)
(-0.0002503104493 1.922055223e-11 -0.01734792236)
(-0.0002826951704 1.922008516e-11 -0.01734686709)
(-0.000306759274 1.921973756e-11 -0.01734608296)
(-0.0003215776682 1.921952398e-11 -0.0173456001)
(-0.0003370204104 2.236325445e-11 -0.02023204741)
(-0.0003320208665 2.236332625e-11 -0.02023221019)
(-0.0003172147751 2.236353941e-11 -0.02023269225)
(-0.0002931706506 2.236388505e-11 -0.02023347508)
(-0.0002608128168 2.236435039e-11 -0.02023452859)
(-0.0002213843295 2.236491764e-11 -0.02023581231)
(-0.0001764007935 2.236556426e-11 -0.02023727689)
(-0.000127591234 2.236626596e-11 -0.02023886604)
(-7.683077252e-05 2.236699628e-11 -0.02024051871)
(-2.607031107e-05 2.236772659e-11 -0.02024217138)
(2.273924847e-05 2.236842829e-11 -0.02024376053)
(6.772278442e-05 2.236907491e-11 -0.02024522511)
(0.0001071512716 2.236964216e-11 -0.02024650883)
(0.0001395091054 2.23701075e-11 -0.02024756234)
(0.0001635532297 2.237045315e-11 -0.02024834518)
(0.000178359321 2.237066587e-11 -0.02024882724)
(0.0001833588648 2.237073781e-11 -0.02024899001)
(0.0001783593209 2.237066587e-11 -0.02024882724)
(0.0001635532295 2.237045315e-11 -0.02024834518)
(0.0001395091051 2.23701075e-11 -0.02024756234)
(0.0001071512712 2.236964216e-11 -0.02024650883)
(6.772278395e-05 2.236907491e-11 -0.02024522511)
(2.273924795e-05 2.236842829e-11 -0.02024376053)
(-2.607031162e-05 2.236772659e-11 -0.02024217138)
(-7.683077308e-05 2.236699628e-11 -0.02024051871)
(-0.0001275912345 2.236626596e-11 -0.02023886604)
(-0.0001764007941 2.236556426e-11 -0.02023727689)
(-0.00022138433 2.236491764e-11 -0.02023581231)
(-0.0002608128172 2.236435039e-11 -0.02023452859)
(-0.000293170651 2.236388505e-11 -0.02023347508)
(-0.0003172147753 2.236353941e-11 -0.02023269225)
(-0.0003320208666 2.236332625e-11 -0.02023221019)
(-0.0003472640764 2.548030971e-11 -0.02311610337)
(-0.0003422692365 2.548038137e-11 -0.02311626584)
(-0.0003274770762 2.548059333e-11 -0.02311674699)
(-0.0003034555749 2.548093724e-11 -0.02311752835)
(-0.0002711281867 2.548140041e-11 -0.02311857988)
(-0.0002317367978 2.548196506e-11 -0.02311986118)
(-0.0001867955869 2.548260908e-11 -0.023121323)
(-0.0001380319524 2.54833073e-11 -0.02312290916)
(-8.731925162e-05 2.548403415e-11 -0.02312455872)
(-3.660655083e-05 2.5484761e-11 -0.02312620827)
(1.215708365e-05 2.548545923e-11 -0.02312779443)
(5.709829447e-05 2.548610325e-11 -0.02312925625)
(9.648968327e-05 2.54866679e-11 -0.02313053756)
(0.0001288170715 2.548713107e-11 -0.02313158909)
(0.0001528385726 2.548747498e-11 -0.02313237044)
(0.0001676307328 2.548768694e-11 -0.0231328516)
(0.0001726255726 2.548775849e-11 -0.02313301407)
(0.0001676307327 2.548768694e-11 -0.0231328516)
(0.0001528385724 2.548747498e-11 -0.02313237044)
(0.0001288170711 2.548713107e-11 -0.02313158909)
(9.648968287e-05 2.54866679e-11 -0.02313053756)
(5.7098294e-05 2.548610325e-11 -0.02312925625)
(1.215708314e-05 2.548545923e-11 -0.02312779443)
(-3.660655138e-05 2.5484761e-11 -0.02312620827)
(-8.731925218e-05 2.548403415e-11 -0.02312455872)
(-0.000138031953 2.54833073e-11 -0.02312290916)
(-0.0001867955874 2.548260908e-11 -0.023121323)
(-0.0002317367983 2.548196506e-11 -0.02311986118)
(-0.0002711281871 2.548140041e-11 -0.02311857988)
(-0.0003034555753 2.548093724e-11 -0.02311752835)
(-0.0003274770764 2.548059333e-11 -0.02311674699)
(-0.0003422692366 2.548038137e-11 -0.02311626584)
(-0.0003572942082 2.856744503e-11 -0.02599729716)
(-0.0003523045887 2.85675163e-11 -0.02599745929)
(-0.0003375278886 2.856772718e-11 -0.02599793943)
(-0.0003135314936 2.856806978e-11 -0.02599871916)
(-0.0002812378926 2.856853035e-11 -0.02599976849)
(-0.000241887674 2.856909197e-11 -0.02600104711)
(-0.0001969934338 2.856973252e-11 -0.02600250588)
(-0.0001482807651 2.857042814e-11 -0.02600408872)
(-9.76210671e-05 2.857115065e-11 -0.02600573482)
(-4.696136915e-05 2.857187317e-11 -0.02600738093)
(1.751299591e-06 2.857256879e-11 -0.02600896377)
(4.66455397e-05 2.857320934e-11 -0.02601042254)
(8.599575824e-05 2.857377095e-11 -0.02601170116)
(0.0001182893592 2.857423152e-11 -0.02601275049)
(0.0001422857541 2.85745737e-11 -0.02601353021)
(0.0001570624541 2.857478457e-11 -0.02601401036)
(0.0001620520734 2.857485581e-11 -0.02601417249)
(0.000157062454 2.857478457e-11 -0.02601401036)
(0.0001422857539 2.85745737e-11 -0.02601353021)
(0.0001182893589 2.857423152e-11 -0.02601275049)
(8.599575785e-05 2.857377095e-11 -0.02601170116)
(4.664553924e-05 2.857320934e-11 -0.02601042254)
(1.75129908e-06 2.857256879e-11 -0.02600896377)
(-4.696136969e-05 2.857187317e-11 -0.02600738093)
(-9.762106766e-05 2.857115065e-11 -0.02600573482)
(-0.0001482807656 2.857042814e-11 -0.02600408872)
(-0.0001969934343 2.856973252e-11 -0.02600250588)
(-0.0002418876745 2.856909197e-11 -0.02600104711)
(-0.000281237893 2.856853035e-11 -0.02599976849)
(-0.0003135314939 2.856806978e-11 -0.02599871916)
(-0.0003375278888 2.856772718e-11 -0.02599793943)
(-0.0003523045889 2.85675163e-11 -0.02599745929)
(-0.0003670940617 3.162174936e-11 -0.02887534072)
(-0.0003621101441 3.162182007e-11 -0.02887550248)
(-0.0003473503301 3.162202986e-11 -0.02887598153)
(-0.0003233813571 3.162237009e-11 -0.02887675947)
(-0.0002911246596 3.162282849e-11 -0.0288778064)
(-0.0002518194086 3.162338707e-11 -0.0288790821)
(-0.0002069764714 3.162402371e-11 -0.02888053753)
(-0.0001583194691 3.1624715e-11 -0.02888211675)
(-0.0001077176626 3.162543404e-11 -0.02888375909)
(-5.711585617e-05 3.162615309e-11 -0.02888540144)
(-8.458853943e-06 3.162684437e-11 -0.02888698066)
(3.638408318e-05 3.162748102e-11 -0.02888843609)
(7.568933417e-05 3.16280396e-11 -0.02888971179)
(0.0001079460315 3.1628498e-11 -0.02889075872)
(0.0001319150045 3.162883865e-11 -0.02889153666)
(0.0001466748184 3.162904823e-11 -0.02889201571)
(0.0001516587359 3.162911905e-11 -0.02889217747)
(0.0001466748183 3.162904823e-11 -0.02889201571)
(0.0001319150043 3.162883865e-11 -0.02889153666)
(0.0001079460312 3.1628498e-11 -0.02889075872)
(7.568933378e-05 3.16280396e-11 -0.02888971179)
(3.638408272e-05 3.162748102e-11 -0.02888843609)
(-8.458854449e-06 3.162684437e-11 -0.02888698066)
(-5.711585671e-05 3.162615309e-11 -0.02888540144)
(-0.0001077176632 3.162543404e-11 -0.02888375909)
(-0.0001583194697 3.1624715e-11 -0.02888211675)
(-0.0002069764719 3.162402371e-11 -0.02888053753)
(-0.000251819409 3.162338707e-11 -0.0288790821)
(-0.00029112466 3.162282849e-11 -0.0288778064)
(-0.0003233813574 3.162237009e-11 -0.02887675947)
(-0.0003473503303 3.162202986e-11 -0.02887598153)
(-0.0003621101442 3.162182007e-11 -0.02887550248)
(-0.0003766482794 3.4640605e-11 -0.03174996618)
(-0.0003716705101 3.464067542e-11 -0.03175012754)
(-0.0003569289042 3.464088391e-11 -0.03175060541)
(-0.0003329894999 3.464122218e-11 -0.03175138143)
(-0.0003007725952 3.464167798e-11 -0.03175242578)
(-0.0002615158321 3.464223309e-11 -0.03175369833)
(-0.0002167282144 3.464286627e-11 -0.03175515017)
(-0.0001681312367 3.464355278e-11 -0.03175672549)
(-0.0001175918539 3.464426749e-11 -0.03175836378)
(-6.705247118e-05 3.46449822e-11 -0.03176000207)
(-1.845549352e-05 3.464566958e-11 -0.03176157739)
(2.633212416e-05 3.464630275e-11 -0.03176302923)
(6.558888715e-05 3.464685787e-11 -0.03176430178)
(9.780579179e-05 3.464731366e-11 -0.03176534612)
(0.000121745196 3.464765194e-11 -0.03176612214)
(0.0001364868018 3.464786043e-11 -0.03176660001)
(0.000141464571 3.464793088e-11 -0.03176676137)
(0.0001364868017 3.464786043e-11 -0.03176660001)
(0.0001217451958 3.464765194e-11 -0.03176612214)
(9.780579149e-05 3.464731366e-11 -0.03176534612)
(6.558888677e-05 3.464685787e-11 -0.03176430178)
(2.633212371e-05 3.464630275e-11 -0.03176302923)
(-1.845549402e-05 3.464566958e-11 -0.03176157739)
(-6.705247171e-05 3.46449822e-11 -0.03176000207)
(-0.0001175918545 3.464426749e-11 -0.03175836378)
(-0.0001681312372 3.464355278e-11 -0.03175672549)
(-0.0002167282149 3.464286627e-11 -0.03175515017)
(-0.0002615158325 3.464223309e-11 -0.03175369833)
(-0.0003007725955 3.464167798e-11 -0.03175242578)
(-0.0003329895002 3.464122218e-11 -0.03175138143)
(-0.0003569289044 3.464088391e-11 -0.03175060541)
(-0.0003716705102 3.464067542e-11 -0.03175012754)
(-0.000385942823 3.762171801e-11 -0.03462092569)
(-0.0003809716141 3.762178795e-11 -0.03462108663)
(-0.0003662494367 3.762199515e-11 -0.03462156323)
(-0.000342341583 3.76223319e-11 -0.03462233721)
(-0.0003101671382 3.762278423e-11 -0.0346233788)
(-0.0002709621131 3.762333587e-11 -0.03462464799)
(-0.0002262335227 3.762396514e-11 -0.034626096)
(-0.0001777005928 3.762464732e-11 -0.03462766717)
(-0.0001272278178 3.762535769e-11 -0.03462930114)
(-7.675504277e-05 3.762606806e-11 -0.03463093511)
(-2.82221129e-05 3.762675111e-11 -0.03463250628)
(1.650647749e-05 3.762738038e-11 -0.03463395429)
(5.571150252e-05 3.762793202e-11 -0.03463522348)
(8.788594728e-05 3.762838435e-11 -0.03463626508)
(0.0001117938008 3.762872067e-11 -0.03463703905)
(0.0001265159781 3.762892786e-11 -0.03463751566)
(0.0001314871869 3.762899772e-11 -0.03463767659)
(0.000126515978 3.762892786e-11 -0.03463751566)
(0.0001117938006 3.762872067e-11 -0.03463703905)
(8.788594698e-05 3.762838435e-11 -0.03463626508)
(5.571150214e-05 3.762793202e-11 -0.03463522348)
(1.650647704e-05 3.762738038e-11 -0.03463395429)
(-2.82221134e-05 3.762675111e-11 -0.03463250628)
(-7.67550433e-05 3.762606806e-11 -0.03463093511)
(-0.0001272278183 3.762535769e-11 -0.03462930114)
(-0.0001777005933 3.762464732e-11 -0.03462766717)
(-0.0002262335232 3.762396514e-11 -0.034626096)
(-0.0002709621135 3.762333587e-11 -0.03462464799)
(-0.0003101671386 3.762278423e-11 -0.0346233788)
(-0.0003423415833 3.76223319e-11 -0.03462233721)
(-0.0003662494369 3.762199515e-11 -0.03462156323)
(-0.0003809716142 3.762178795e-11 -0.03462108663)
(-0.0003949648557 4.056314599e-11 -0.03748799062)
(-0.000390000587 4.056321544e-11 -0.0374881511)
(-0.0003752989629 4.056342133e-11 -0.03748862637)
(-0.0003514244865 4.056375548e-11 -0.03748939819)
(-0.0003192949598 4.056420521e-11 -0.03749043687)
(-0.000280144668 4.056475295e-11 -0.03749170252)
(-0.0002354785223 4.056537788e-11 -0.03749314649)
(-0.0001870133482 4.056605659e-11 -0.03749471327)
(-0.0001366110372 4.056676176e-11 -0.03749634267)
(-8.620872627e-05 4.056746692e-11 -0.03749797208)
(-3.774355224e-05 4.056814563e-11 -0.03749953886)
(6.92259347e-06 4.056877057e-11 -0.03750098282)
(4.607288516e-05 4.05693183e-11 -0.03750224847)
(7.820241183e-05 4.056976803e-11 -0.03750328716)
(0.0001020768881 4.057010218e-11 -0.03750405897)
(0.0001167785121 4.057030807e-11 -0.03750453424)
(0.0001217427807 4.057037748e-11 -0.03750469473)
(0.000116778512 4.057030807e-11 -0.03750453424)
(0.0001020768879 4.057010218e-11 -0.03750405897)
(7.820241154e-05 4.056976803e-11 -0.03750328716)
(4.607288478e-05 4.05693183e-11 -0.03750224847)
(6.922593033e-06 4.056877057e-11 -0.03750098282)
(-3.774355273e-05 4.056814563e-11 -0.03749953886)
(-8.620872679e-05 4.056746692e-11 -0.03749797208)
(-0.0001366110378 4.056676176e-11 -0.03749634267)
(-0.0001870133487 4.056605659e-11 -0.03749471327)
(-0.0002354785228 4.056537788e-11 -0.03749314649)
(-0.0002801446685 4.056475295e-11 -0.03749170252)
(-0.0003192949602 4.056420521e-11 -0.03749043687)
(-0.0003514244868 4.056375548e-11 -0.03748939819)
(-0.0003752989631 4.056342133e-11 -0.03748862637)
(-0.0003900005871 4.056321544e-11 -0.0374881511)
(-0.0004037025837 4.346332227e-11 -0.04035095007)
(-0.000398745606 4.34633912e-11 -0.04035111008)
(-0.0003840655738 4.346359579e-11 -0.04035158396)
(-0.0003602261611 4.346392777e-11 -0.0403523535)
(-0.0003281438221 4.346437403e-11 -0.04035338913)
(-0.0002890510293 4.34649183e-11 -0.04035465106)
(-0.0002444504835 4.346553889e-11 -0.04035609079)
(-0.0001960564889 4.34662124e-11 -0.04035765296)
(-0.0001457282024 4.346691323e-11 -0.04035927758)
(-9.539991586e-05 4.346761406e-11 -0.0403609022)
(-4.700592127e-05 4.346828756e-11 -0.04036246437)
(-2.40537548e-06 4.346890816e-11 -0.0403639041)
(3.668741727e-05 4.346945243e-11 -0.04036516603)
(6.87697562e-05 4.346989869e-11 -0.04036620166)
(9.260916872e-05 4.347023067e-11 -0.0403669712)
(0.0001072892008 4.347043483e-11 -0.04036744508)
(0.0001122461785 4.347050381e-11 -0.0403676051)
(0.0001072892007 4.347043483e-11 -0.04036744508)
(9.260916852e-05 4.347023067e-11 -0.0403669712)
(6.876975591e-05 4.346989869e-11 -0.04036620166)
(3.66874169e-05 4.346945243e-11 -0.04036516603)
(-2.405375911e-06 4.346890816e-11 -0.0403639041)
(-4.700592175e-05 4.346828756e-11 -0.04036246437)
(-9.539991636e-05 4.346761406e-11 -0.0403609022)
(-0.0001457282029 4.346691323e-11 -0.04035927758)
(-0.0001960564894 4.34662124e-11 -0.04035765296)
(-0.000244450484 4.346553889e-11 -0.04035609079)
(-0.0002890510298 4.34649183e-11 -0.04035465106)
(-0.0003281438225 4.346437403e-11 -0.04035338913)
(-0.0003602261614 4.346392777e-11 -0.0403523535)
(-0.000384065574 4.346359579e-11 -0.04035158396)
(-0.0003987456061 4.34633912e-11 -0.04035111008)
(-0.0004121450477 4.632107556e-11 -0.04320960871)
(-0.0004071956868 4.632114408e-11 -0.04320976823)
(-0.0003925382117 4.632134693e-11 -0.04321024065)
(-0.0003687354304 4.63216761e-11 -0.04321100783)
(-0.0003367023886 4.632211932e-11 -0.04321204028)
(-0.0002976696653 4.632265968e-11 -0.04321329833)
(-0.000253137652 4.632327594e-11 -0.04321473363)
(-0.0002048180189 4.632394468e-11 -0.043216291)
(-0.0001545670661 4.63246403e-11 -0.04321791062)
(-0.0001043161134 4.632533593e-11 -0.04321953025)
(-5.599648033e-05 4.632600466e-11 -0.04322108762)
(-1.14644671e-05 4.632662092e-11 -0.04322252292)
(2.756825621e-05 4.632716129e-11 -0.04322378097)
(5.960129787e-05 4.632760451e-11 -0.04322481342)
(8.340407908e-05 4.632793411e-11 -0.0432255806)
(9.806155406e-05 4.632813718e-11 -0.04322605302)
(0.0001030109149 4.632820565e-11 -0.04322621254)
(9.806155396e-05 4.632813718e-11 -0.04322605302)
(8.340407888e-05 4.632793411e-11 -0.0432255806)
(5.960129759e-05 4.632760451e-11 -0.04322481342)
(2.756825585e-05 4.632716129e-11 -0.04322378097)
(-1.146446753e-05 4.632662092e-11 -0.04322252292)
(-5.59964808e-05 4.632600466e-11 -0.04322108762)
(-0.0001043161139 4.632533593e-11 -0.04321953025)
(-0.0001545670667 4.63246403e-11 -0.04321791062)
(-0.0002048180194 4.632394468e-11 -0.043216291)
(-0.0002531376525 4.632327594e-11 -0.04321473363)
(-0.0002976696657 4.632265968e-11 -0.04321329833)
(-0.000336702389 4.632211932e-11 -0.04321204028)
(-0.0003687354307 4.63216761e-11 -0.04321100783)
(-0.0003925382119 4.632134693e-11 -0.04321024065)
(-0.0004071956869 4.632114408e-11 -0.04320976823)
(-0.0004202818756 4.913564364e-11 -0.04606378392)
(-0.0004153404382 4.913571167e-11 -0.04606394293)
(-0.0004007064287 4.9135913e-11 -0.04606441384)
(-0.0003769417538 4.913623978e-11 -0.04606517856)
(-0.0003449599945 4.913667997e-11 -0.0460662077)
(-0.0003059897595 4.913721643e-11 -0.04606746172)
(-0.0002615290386 4.913782792e-11 -0.04606889242)
(-0.0002132867616 4.913849189e-11 -0.04607044481)
(-0.0001631162568 4.913918231e-11 -0.04607205925)
(-0.0001129457519 4.913987273e-11 -0.04607367368)
(-6.470347493e-05 4.914053669e-11 -0.04607522607)
(-2.024275406e-05 4.914114818e-11 -0.04607665677)
(1.872748084e-05 4.914168465e-11 -0.04607791079)
(5.070924005e-05 4.914212483e-11 -0.04607893993)
(7.447391483e-05 4.914245161e-11 -0.04607970466)
(8.910792431e-05 4.914265295e-11 -0.04608017556)
(9.404936162e-05 4.914272101e-11 -0.04608033458)
(8.910792421e-05 4.914265295e-11 -0.04608017556)
(7.447391463e-05 4.914245161e-11 -0.04607970466)
(5.070923977e-05 4.914212483e-11 -0.04607893993)
(1.872748049e-05 4.914168465e-11 -0.04607791079)
(-2.024275448e-05 4.914114818e-11 -0.04607665677)
(-6.470347539e-05 4.914053669e-11 -0.04607522607)
(-0.0001129457524 4.913987273e-11 -0.04607367368)
(-0.0001631162573 4.913918231e-11 -0.04607205925)
(-0.0002132867621 4.913849189e-11 -0.04607044481)
(-0.0002615290391 4.913782792e-11 -0.04606889242)
(-0.00030598976 4.913721643e-11 -0.04606746172)
(-0.0003449599949 4.913667997e-11 -0.0460662077)
(-0.0003769417541 4.913623978e-11 -0.04606517856)
(-0.0004007064289 4.9135913e-11 -0.04606441384)
(-0.0004153404383 4.913571167e-11 -0.04606394293)
(-0.0004281029923 5.190668003e-11 -0.04891330225)
(-0.0004231697727 5.190674756e-11 -0.04891346073)
(-0.0004085600999 5.190694727e-11 -0.04891393007)
(-0.0003848349464 5.190727188e-11 -0.04891469225)
(-0.0003529063738 5.19077086e-11 -0.04891571797)
(-0.0003140009475 5.190824073e-11 -0.04891696782)
(-0.0002696141661 5.190884788e-11 -0.04891839376)
(-0.0002214521175 5.190950621e-11 -0.04891994098)
(-0.0001713650477 5.191019142e-11 -0.04892155005)
(-0.000121277978 5.191087664e-11 -0.04892315911)
(-7.311592937e-05 5.191153583e-11 -0.04892470633)
(-2.872914804e-05 5.191214299e-11 -0.04892613228)
(1.017627817e-05 5.191267511e-11 -0.04892738213)
(4.210485074e-05 5.191311183e-11 -0.04892840784)
(6.583000413e-05 5.191343601e-11 -0.04892917002)
(8.043967681e-05 5.191363615e-11 -0.04892963936)
(8.537289636e-05 5.191370356e-11 -0.04892979784)
(8.043967671e-05 5.191363615e-11 -0.04892963936)
(6.583000394e-05 5.191343601e-11 -0.04892917002)
(4.210485046e-05 5.191311183e-11 -0.04892840784)
(1.017627782e-05 5.191267511e-11 -0.04892738213)
(-2.872914845e-05 5.191214299e-11 -0.04892613228)
(-7.311592982e-05 5.191153583e-11 -0.04892470633)
(-0.0001212779785 5.191087664e-11 -0.04892315911)
(-0.0001713650482 5.191019142e-11 -0.04892155005)
(-0.000221452118 5.190950621e-11 -0.04891994098)
(-0.0002696141666 5.190884788e-11 -0.04891839376)
(-0.0003140009479 5.190824073e-11 -0.04891696782)
(-0.0003529063741 5.19077086e-11 -0.04891571797)
(-0.0003848349467 5.190727188e-11 -0.04891469225)
(-0.0004085601001 5.190694727e-11 -0.04891393007)
(-0.0004231697728 5.190674756e-11 -0.04891346073)
(-0.0004355982948 5.463425228e-11 -0.05175799526)
(-0.0004306735823 5.46343192e-11 -0.05175815319)
(-0.0004160891036 5.463451761e-11 -0.05175862092)
(-0.0003924048635 5.463483962e-11 -0.05175938047)
(-0.0003605313509 5.463527287e-11 -0.05176040264)
(-0.000321693016 5.463580066e-11 -0.05176164818)
(-0.0002773827786 5.463640304e-11 -0.05176306921)
(-0.0002293037841 5.463705703e-11 -0.05176461109)
(-0.0001793030883 5.463773704e-11 -0.05176621461)
(-0.0001293023924 5.463841705e-11 -0.05176781812)
(-8.122339804e-05 5.463907018e-11 -0.05176936001)