/*--------------------------------*- C++ -*----------------------------------*\
| =========                 |                                                 |
| \\      /  F ield         | OpenFOAM: The Open Source CFD Toolbox           |
|  \\    /   O peration     | Version:  2312                                  |
|   \\  /    A nd           | Website:  www.openfoam.com                      |
|    \\/     M anipulation  |                                                 |
\*---------------------------------------------------------------------------*/
FoamFile
{
    version     2.0;
    format      ascii;
    arch        "LSB;label=32;scalar=64";
    class       surfaceVectorField;
    location    "0.19/beam";
    object      Q;
}
// * * * * * * * * * * * * * * * * * * * * * * * * * * * * * * * * * * * * * //

dimensions      [1 1 -2 0 0 0 0];

oriented        oriented;

internalField   nonuniform List<vector> 
59
(
(0.2833300401 2.067873114e-11 -0.01853002461)
(0.2833303901 2.063927508e-11 -0.01852625181)
(0.2833309711 2.057385267e-11 -0.01852000033)
(0.2833317794 2.048297259e-11 -0.01851132396)
(0.2833328104 2.036735111e-11 -0.01850029602)
(0.2833340581 2.022791528e-11 -0.01848700749)
(0.2833355154 2.006580601e-11 -0.01847156457)
(0.2833371746 1.988238011e-11 -0.01845408575)
(0.2833390272 1.967921042e-11 -0.01843469855)
(0.2833410644 1.945808289e-11 -0.0184135358)
(0.2833432774 1.922098966e-11 -0.0183907317)
(0.2833456571 1.897011694e-11 -0.01836641755)
(0.2833481952 1.870782662e-11 -0.01834071742)
(0.2833508839 1.843663089e-11 -0.01831374363)
(0.2833537164 1.815915894e-11 -0.01828559229)
(0.2833566869 1.787811553e-11 -0.01825633885)
(0.2833597912 1.759623129e-11 -0.01822603381)
(0.2833630269 1.731620533e-11 -0.01819469864)
(0.2833663932 1.704064101e-11 -0.01816232198)
(0.2833698914 1.677197651e-11 -0.01812885633)
(0.2833735251 1.651241236e-11 -0.01809421517)
(0.2833773002 1.626383865e-11 -0.01805827099)
(0.2833812243 1.602779118e-11 -0.01802085842)
(0.2833853092 1.580525847e-11 -0.01798175289)
(0.2833895657 1.559691126e-11 -0.01794072027)
(0.28339401 1.540269136e-11 -0.01789745388)
(0.2833986563 1.52221681e-11 -0.01785165508)
(0.2834035235 1.505418871e-11 -0.01780296413)
(0.2834086266 1.489723028e-11 -0.01775105561)
(0.2834139842 1.474914584e-11 -0.01769556617)
(0.2834196087 1.460752435e-11 -0.01763620794)
(0.2834255138 1.446952056e-11 -0.01757269062)
(0.2834317038 1.433223072e-11 -0.01750485375)
(0.2834381821 1.419257519e-11 -0.01743257791)
(0.2834449392 1.404768936e-11 -0.0173559327)
(0.2834519624 1.389481178e-11 -0.01727506877)
(0.2834592234 1.373168059e-11 -0.01719037347)
(0.28346669 1.35563726e-11 -0.01710233417)
(0.2834743135 1.33676898e-11 -0.01701169002)
(0.2834820427 1.316490074e-11 -0.0169192599)
(0.2834898121 1.294810346e-11 -0.01682607982)
(0.2834975578 1.271784177e-11 -0.01673319802)
(0.2835052063 1.247544166e-11 -0.01664179482)
(0.2835126915 1.222250774e-11 -0.01655296146)
(0.2835199439 1.196124708e-11 -0.01646781058)
(0.2835269067 1.169388516e-11 -0.01638726792)
(0.2835335246 1.142300646e-11 -0.01631218927)
(0.2835397574 1.115095286e-11 -0.01624319534)
(0.2835455682 1.088021614e-11 -0.01618080593)
(0.2835509338 1.061288684e-11 -0.0161253321)
(0.2835558325 1.035112679e-11 -0.01607701936)
(0.283560252 1.009672167e-11 -0.01603598526)
(0.2835641788 9.851638042e-12 -0.01600234428)
(0.2835676046 9.617689621e-12 -0.01597616402)
(0.2835705181 9.397119159e-12 -0.0159575448)
(0.2835729113 9.192285902e-12 -0.01594657834)
(0.2835747741 9.006074437e-12 -0.01594337675)
(0.2835760994 8.841363217e-12 -0.01594804148)
(0.2835768803 8.700975101e-12 -0.01596065575)
)
;

boundaryField
{
    left
    {
        type            calculated;
        value           uniform (-0.2833299232 -2.75037068e-11 0.01853128588);
    }
    right
    {
        type            calculated;
        value           uniform (0.2835771128 1.775806355e-12 -0.01598128151);
    }
    beam
    {
        type            empty;
        value           nonuniform List<vector> 0();
    }
}


// ************************************************************************* //
