/*--------------------------------*- C++ -*----------------------------------*\
| =========                 |                                                 |
| \\      /  F ield         | OpenFOAM: The Open Source CFD Toolbox           |
|  \\    /   O peration     | Version:  2312                                  |
|   \\  /    A nd           | Website:  www.openfoam.com                      |
|    \\/     M anipulation  |                                                 |
\*---------------------------------------------------------------------------*/
FoamFile
{
    version     2.0;
    format      ascii;
    arch        "LSB;label=32;scalar=64";
    class       volVectorField;
    location    "0.19/beam";
    object      Theta;
}
// * * * * * * * * * * * * * * * * * * * * * * * * * * * * * * * * * * * * * //

dimensions      [0 0 0 0 0 0 0];

internalField   nonuniform List<vector> 
60
(
(-5.50366857e-13 0.06525990547 7.282630772e-11)
(-5.471241668e-13 0.06525335974 7.273526567e-11)
(-5.406412961e-13 0.06523668241 7.25532987e-11)
(-5.30925579e-13 0.0652122143 7.228181486e-11)
(-5.179902387e-13 0.06517886376 7.192293737e-11)
(-5.018568993e-13 0.06513769919 7.147951433e-11)
(-4.825589202e-13 0.0650885913 7.095512931e-11)
(-4.60145399e-13 0.06503220869 7.035410605e-11)
(-4.346852311e-13 0.06496880738 6.968151468e-11)
(-4.062719104e-13 0.06489893642 6.894316141e-11)
(-3.750280687e-13 0.06482299508 6.814557e-11)
(-3.411094579e-13 0.06474147562 6.729594964e-11)
(-3.047088049e-13 0.06465479451 6.640213836e-11)
(-2.660585694e-13 0.06456336903 6.547252528e-11)
(-2.254325131e-13 0.06446754661 6.451594896e-11)
(-1.831458654e-13 0.06436762228 6.354156805e-11)
(-1.395537869e-13 0.06426380375 6.255871007e-11)
(-9.504875047e-14 0.06415620877 6.157666515e-11)
(-5.005463674e-14 0.06404484449 6.060451495e-11)
(-5.021012768e-15 0.06392959949 5.965087683e-11)
(3.958549722e-14 0.06381023086 5.872367608e-11)
(8.329073413e-14 0.06368635782 5.782990299e-11)
(1.256210553e-13 0.06355746346 5.697541652e-11)
(1.661236749e-13 0.06342286515 5.616454186e-11)
(2.043646555e-13 0.06328176239 5.54001643e-11)
(2.399473828e-13 0.06313321937 5.468339444e-11)
(2.725228375e-13 0.06297619096 5.401351708e-11)
(3.017955693e-13 0.06280955113 5.33879903e-11)
(3.275333799e-13 0.06263213175 5.28024559e-11)
(3.495695946e-13 0.0624427728 5.22509405e-11)
(3.678120464e-13 0.06224038395 5.172603623e-11)
(3.822268045e-13 0.06202401671 5.121911453e-11)
(3.928582342e-13 0.06179294508 5.072084631e-11)
(3.998076382e-13 0.06154675093 5.022153573e-11)
(4.032329289e-13 0.06128540915 4.971154562e-11)
(4.033364766e-13 0.06100936566 4.918181115e-11)
(4.003578054e-13 0.06071960077 4.862425083e-11)
(3.945593595e-13 0.06041766924 4.803218458e-11)
(3.862174894e-13 0.06010570944 4.740064904e-11)
(3.756075013e-13 0.05978641533 4.672663664e-11)
(3.629935076e-13 0.05946296733 4.600921149e-11)
(3.486120775e-13 0.05913892385 4.524951084e-11)
(3.326582428e-13 0.05881807714 4.445062156e-11)
(3.152627319e-13 0.05850428778 4.361734805e-11)
(2.964670779e-13 0.05820130694 4.275588929e-11)
(2.761858278e-13 0.05791261554 4.187345363e-11)
(2.541642204e-13 0.05764128099 4.097784984e-11)
(2.299268924e-13 0.05738987799 4.007709609e-11)
(2.027398336e-13 0.05716043265 3.917910084e-11)
(1.716051718e-13 0.05695447615 3.829147183e-11)
(1.353550162e-13 0.0567730591 3.742154661e-11)
(9.291627249e-14 0.05661694535 3.657672367e-11)
(4.387108517e-14 0.05648656956 3.576522019e-11)
(-1.060493773e-14 0.05638238992 3.499731005e-11)
(-6.646668439e-14 0.05630450902 3.428690724e-11)
(-1.157319932e-13 0.05625335378 3.365261608e-11)
(-1.474159797e-13 0.05622825149 3.311530907e-11)
(-1.554542603e-13 0.0562287523 3.268384803e-11)
(-1.668573471e-13 0.05624935243 3.230713664e-11)
(-3.278581217e-13 0.05627966544 3.174324396e-11)
)
;

boundaryField
{
    left
    {
        type            momentBeamRotationNR;
        value           uniform (-5.50366857e-13 0.06525990547 7.282630772e-11);
        momentSeries    
{
        file            "$FOAM_CASE/constant/beam/timeVsMoment";
        outOfBounds     clamp;
}
        moment          uniform (0 0 0);
    }
    right
    {
        type            momentBeamRotationNR;
        value           uniform (-3.278581217e-13 0.05627966544 3.174324396e-11);
        momentSeries    
{
        file            "$FOAM_CASE/constant/beam/timeVsMoment";
        outOfBounds     clamp;
}
        moment          uniform (0 0 0);
    }
    beam
    {
        type            empty;
    }
}


// ************************************************************************* //
