/*--------------------------------*- C++ -*----------------------------------*\
| =========                 |                                                 |
| \\      /  F ield         | OpenFOAM: The Open Source CFD Toolbox           |
|  \\    /   O peration     | Version:  2312                                  |
|   \\  /    A nd           | Website:  www.openfoam.com                      |
|    \\/     M anipulation  |                                                 |
\*---------------------------------------------------------------------------*/
FoamFile
{
    version     2.0;
    format      ascii;
    arch        "LSB;label=32;scalar=64";
    class       volVectorField;
    location    "0.19/beam";
    object      W;
}
// * * * * * * * * * * * * * * * * * * * * * * * * * * * * * * * * * * * * * //

dimensions      [0 1 0 0 0 0 0];

internalField   nonuniform List<vector> 
60
(
(-5.591278951e-06 1.615108092e-12 -0.001447332194)
(-1.676103545e-05 4.84128107e-12 -0.00434180101)
(-2.789250605e-05 8.061340296e-12 -0.007235684786)
(-3.896054928e-05 1.1271263e-11 -0.01012859904)
(-4.994058187e-05 1.44671063e-11 -0.01302016748)
(-6.080878231e-05 1.76450397e-11 -0.01591002491)
(-7.154227232e-05 2.080137795e-11 -0.01879781998)
(-8.211927328e-05 2.393261431e-11 -0.02168321744)
(-9.251923051e-05 2.703545389e-11 -0.02456589999)
(-0.0001027229042 3.010684695e-11 -0.02744556965)
(-0.0001127124216 3.314402145e-11 -0.03032194854)
(-0.0001224712868 3.614451443e-11 -0.03319477902)
(-0.0001319843493 3.910620131e-11 -0.03606382326)
(-0.0001412377257 4.202732216e-11 -0.03892886208)
(-0.0001502186795 4.490650392e-11 -0.04178969308)
(-0.0001589154533 4.774277729e-11 -0.04464612817)
(-0.0001673170607 5.053558737e-11 -0.04749799033)
(-0.0001754130352 5.328479623e-11 -0.05034510977)
(-0.0001831931418 5.599067697e-11 -0.05318731945)
(-0.0001906470538 5.865389815e-11 -0.05602445003)
(-0.0001977640014 6.127549736e-11 -0.05885632431)
(-0.0002045323975 6.385684416e-11 -0.0616827513)
(-0.0002109390872 6.639944852e-11 -0.06450336069)
(-0.0002169704474 6.890548097e-11 -0.06731823425)
(-0.000222609663 7.13768274e-11 -0.07012694126)
(-0.0002278381289 7.381561607e-11 -0.07292917442)
(-0.0002326344214 7.622396322e-11 -0.07572457968)
(-0.0002369744493 7.860391844e-11 -0.07851275797)
(-0.0002408309224 8.095735547e-11 -0.08129325618)
(-0.0002441737775 8.328591856e-11 -0.08406557311)
(-0.0002469698887 8.559093003e-11 -0.08682915402)
(-0.0002491838974 8.787335105e-11 -0.08958340295)
(-0.0002507782624 9.013371651e-11 -0.09232768265)
(-0.0002517145877 9.237213068e-11 -0.09506133498)
(-0.0002519540524 9.458823917e-11 -0.09778368717)
(-0.0002514592334 9.678126312e-11 -0.1004940808)
(-0.0002501948355 9.895001342e-11 -0.1031918837)
(-0.0002481298503 1.010929664e-10 -0.1058765253)
(-0.0002452383519 1.032083125e-10 -0.108547511)
(-0.0002415016614 1.052940641e-10 -0.1112044591)
(-0.0002369088472 1.073481231e-10 -0.1138471118)
(-0.0002314584661 1.093684038e-10 -0.1164753669)
(-0.0002251583999 1.113528972e-10 -0.1190892785)
(-0.0002180268065 1.132997873e-10 -0.1216890766)
(-0.0002100910966 1.152074914e-10 -0.1242751532)
(-0.0002013879811 1.170747513e-10 -0.126848067)
(-0.0001919617166 1.189006366e-10 -0.1294085156)
(-0.0001818634852 1.206846019e-10 -0.1319573272)
(-0.0001711493599 1.22426453e-10 -0.1344954268)
(-0.0001598795124 1.241263761e-10 -0.1370238228)
(-0.0001481164682 1.257848819e-10 -0.1395435766)
(-0.000135924616 1.274028242e-10 -0.1420557936)
(-0.0001233691224 1.289813499e-10 -0.1445616026)
(-0.0001105158952 1.305219326e-10 -0.1470621545)
(-9.743108503e-05 1.320263555e-10 -0.1495586114)
(-8.418114631e-05 1.334967857e-10 -0.1520521469)
(-7.083215879e-05 1.349358216e-10 -0.1545439318)
(-5.744832384e-05 1.363466758e-10 -0.157035106)
(-4.408703281e-05 1.37733511e-10 -0.1595266892)
(-3.078483685e-05 1.391024222e-10 -0.1620193302)
)
;

boundaryField
{
    left
    {
        type            fixedValue;
        value           uniform (0 0 0);
    }
    right
    {
        type            fixedValue;
        value           uniform (-2.415039021e-05 1.397823863e-10 -0.1632661043);
    }
    beam
    {
        type            empty;
    }
}


// ************************************************************************* //
