/*--------------------------------*- C++ -*----------------------------------*\
| =========                 |                                                 |
| \\      /  F ield         | OpenFOAM: The Open Source CFD Toolbox           |
|  \\    /   O peration     | Version:  2312                                  |
|   \\  /    A nd           | Website:  www.openfoam.com                      |
|    \\/     M anipulation  |                                                 |
\*---------------------------------------------------------------------------*/
FoamFile
{
    version     2.0;
    format      ascii;
    arch        "LSB;label=32;scalar=64";
    class       surfaceTensorField;
    location    "2";
    object      CMQW;
}
// * * * * * * * * * * * * * * * * * * * * * * * * * * * * * * * * * * * * * //

dimensions      [1 2 -2 0 0 0 0];

oriented        oriented;

internalField   nonuniform List<tensor> 
59
(
(-6.39287e-26 0.000139104 1.20676e-20 -0.000139104 1.79512e-27 -3.33826 -1.36022e-20 3.33826 6.21332e-26)
(-5.6608e-26 0.000133745 -6.27073e-21 -0.000133745 -1.27582e-25 -3.33826 4.85806e-21 3.33826 1.84191e-25)
(-5.41536e-26 0.000129305 4.64586e-21 -0.000129305 1.23383e-25 -3.33826 -6.0441e-21 3.33826 -6.92307e-26)
(-5.9608e-26 0.000124315 -1.90972e-21 -0.000124315 3.48229e-26 -3.33826 3.09168e-22 3.33826 2.47858e-26)
(-5.12462e-26 0.000119653 1.59655e-21 -0.000119653 -7.18888e-26 -3.33826 -3.02635e-21 3.33826 1.23137e-25)
(-5.34838e-26 0.000114795 -4.42942e-22 -0.000114795 -6.77629e-26 -3.33826 -1.11233e-21 3.33826 1.21247e-25)
(-4.14681e-26 0.000110055 4.46336e-22 -0.000110055 2.8922e-25 -3.33826 -1.70419e-21 3.33826 -2.47754e-25)
(-5.19747e-26 0.000105245 -2.97065e-22 -0.000105245 6.51175e-26 -3.33826 -1.35151e-21 3.33826 -1.31445e-26)
(-3.54701e-26 0.000100476 1.43482e-22 -0.000100476 2.98056e-25 -3.33826 -1.32196e-21 3.33826 -2.62587e-25)
(-4.56527e-26 9.56823e-05 -1.73095e-22 -9.56823e-05 -2.53814e-26 -3.33826 -1.41967e-21 3.33826 7.10336e-26)
(-3.17759e-26 9.09036e-05 -1.43178e-22 -9.09036e-05 1.52958e-25 -3.33826 -1.02373e-21 3.33826 -1.21183e-25)
(-8.62135e-26 8.6116e-05 2.03844e-21 -8.6116e-05 1.0637e-24 -3.33826 -5.38047e-21 3.33826 -9.77486e-25)
(-1.83442e-26 8.13337e-05 -5.63675e-21 -8.13337e-05 -2.26112e-25 -3.33826 4.88383e-21 3.33826 2.44456e-25)
(-6.84952e-27 7.65482e-05 5.0205e-21 -7.65482e-05 -2.96384e-25 -3.33826 -5.3192e-21 3.33826 3.03232e-25)
(-9.39403e-26 7.17646e-05 -4.47879e-21 -7.17646e-05 1.16855e-25 -3.33826 1.08987e-22 3.33826 -2.29138e-26)
(-1.53582e-25 6.69799e-05 1.0104e-21 -6.69799e-05 -1.39535e-25 -3.33826 -8.66489e-21 3.33826 2.93119e-25)
(-3.46463e-26 6.21959e-05 2.62391e-21 -6.21959e-05 5.64794e-26 -3.33826 -4.48349e-21 3.33826 -2.18328e-26)
(-2.18367e-26 5.74114e-05 6.73097e-22 -5.74114e-05 -1.06543e-25 -3.33826 -1.94282e-21 3.33826 1.2838e-25)
(-4.2135e-26 5.26272e-05 -4.15387e-21 -5.26272e-05 4.82562e-26 -3.33826 1.48116e-21 3.33826 -6.12076e-27)
(-2.53527e-26 4.78429e-05 3.63514e-20 -4.78429e-05 4.75795e-27 -3.33826 -3.81204e-20 3.33826 2.05969e-26)
(4.82811e-26 4.30586e-05 -7.7508e-20 -4.30586e-05 5.96187e-26 -3.33826 8.12512e-20 3.33826 -1.079e-25)
(-7.34141e-26 3.82721e-05 1.12695e-19 -3.82721e-05 1.97301e-25 -3.33807 -1.19098e-19 3.33807 -1.23888e-25)
(1.19675e-25 3.34906e-05 -1.74251e-19 -3.34906e-05 5.7181e-26 -3.33826 1.8618e-19 3.33826 -1.76858e-25)
(1.71652e-26 2.87057e-05 2.80294e-19 -2.87057e-05 5.69256e-26 -3.33826 -2.78298e-19 3.33826 -7.40887e-26)
(6.2071e-26 2.3922e-05 -4.59922e-19 -2.3922e-05 1.9909e-27 -3.33826 4.68584e-19 3.33826 -6.40646e-26)
(2.25111e-25 1.91372e-05 7.58706e-19 -1.91372e-05 1.21053e-25 -3.33826 -7.19438e-19 3.33826 -3.46162e-25)
(-1.72664e-26 1.43534e-05 -1.26966e-18 -1.43534e-05 1.80423e-26 -3.33826 1.26564e-18 3.33826 -7.75118e-28)
(-6.58265e-26 9.56858e-06 2.13002e-18 -9.56858e-06 1.87394e-26 -3.33826 -2.15299e-18 3.33826 4.70881e-26)
(-4.07102e-26 4.78483e-06 -3.56431e-18 -4.78483e-06 -1.55084e-25 -3.33826 3.53591e-18 3.33826 1.95794e-25)
(-6.56275e-34 -1.36012e-12 -4.27678e-23 1.36012e-12 -1.0339e-25 -3.33826 1.65349e-21 3.33826 1.0339e-25)
(-4.11121e-26 -4.78375e-06 3.56535e-18 4.78375e-06 5.3389e-27 -3.33826 -3.53666e-18 3.33826 3.57739e-26)
(5.97984e-26 -9.56858e-06 -2.13296e-18 9.56858e-06 9.52019e-27 -3.33826 2.1121e-18 3.33826 -6.93209e-26)
(3.38091e-26 -1.43523e-05 1.27669e-18 1.43523e-05 1.10295e-25 -3.33826 -1.28455e-18 3.33826 -1.44102e-25)
(-6.39072e-26 -1.91372e-05 -7.66393e-19 1.91372e-05 3.47631e-26 -3.33826 7.77541e-19 3.33826 2.91466e-26)
(-1.24311e-25 -2.39209e-05 4.57114e-19 2.39209e-05 -3.75072e-25 -3.33826 -4.39766e-19 3.33826 4.99383e-25)
(-8.74186e-26 -2.87057e-05 -2.71708e-19 2.87057e-05 -9.04335e-26 -3.33826 2.81874e-19 3.33826 1.77853e-25)
(-1.43487e-25 -3.34895e-05 1.65197e-19 3.34895e-05 1.78203e-25 -3.33826 -1.50894e-19 3.33826 -3.47176e-26)
(-1.44092e-25 -3.82743e-05 -9.55748e-20 3.82743e-05 9.29702e-26 -3.33826 1.08142e-19 3.33826 5.11226e-26)
(7.58953e-26 -4.30581e-05 5.5291e-20 4.30581e-05 2.43026e-25 -3.33826 -6.11751e-20 3.33826 -3.18919e-25)
(-1.96414e-26 -4.78429e-05 -3.43773e-20 4.78429e-05 1.85567e-25 -3.33826 3.57478e-20 3.33826 -1.65925e-25)
(-5.40718e-26 -5.26267e-05 1.8412e-20 5.26267e-05 -2.89999e-25 -3.33826 -1.49821e-20 3.33826 3.44068e-25)
(-7.60022e-26 -5.74114e-05 -9.58895e-21 5.74114e-05 1.09975e-25 -3.33826 1.40082e-20 3.33826 -3.39729e-26)
(-4.61585e-26 -6.21953e-05 3.0607e-21 6.21953e-05 -1.19474e-25 -3.33826 -5.83195e-22 3.33826 1.65633e-25)
(-2.28998e-26 -6.69799e-05 -4.47211e-21 6.69799e-05 1.92134e-25 -3.33826 5.61343e-21 3.33826 -1.69236e-25)
(-9.05319e-26 -7.17641e-05 7.75077e-21 7.17641e-05 -3.48136e-26 -3.33826 -3.53949e-21 3.33826 1.25344e-25)
(-9.49173e-26 -7.65482e-05 -4.97998e-21 7.65482e-05 -2.66432e-26 -3.33826 9.1193e-21 3.33826 1.21561e-25)
(-7.99744e-26 -8.13332e-05 3.06647e-21 8.13332e-05 -1.18209e-26 -3.33826 2.16024e-22 3.33826 9.17947e-26)
(-1.09318e-25 -8.6116e-05 -1.86897e-21 8.6116e-05 -9.56222e-26 -3.33826 6.10662e-21 3.33826 2.04938e-25)
(-7.58025e-26 -9.09031e-05 1.31964e-21 9.09031e-05 7.35966e-26 -3.33826 1.46409e-21 3.33826 2.20654e-27)
(-1.11253e-25 -9.56823e-05 -7.90162e-22 9.56823e-05 -6.18405e-26 -3.33826 4.67167e-21 3.33826 1.73096e-25)
(-8.39817e-26 -0.000100475 7.63536e-22 0.000100475 6.55821e-26 -3.33826 2.02674e-21 3.33826 1.83994e-26)
(-1.10129e-25 -0.000105245 -5.04895e-22 0.000105245 -4.42549e-26 -3.33826 3.99803e-21 3.33826 1.54384e-25)
(-2.20536e-26 -0.000110055 4.98746e-22 0.000110055 -3.60955e-26 -3.33826 1.7021e-22 3.33826 5.81507e-26)
(-8.02239e-26 -0.000114795 -1.72425e-22 0.000114795 -6.08756e-26 -3.33826 2.50528e-21 3.33826 1.41099e-25)
(-3.03392e-26 -0.000119653 -8.79978e-22 0.000119653 -1.63077e-25 -3.33826 1.72646e-21 3.33826 1.93414e-25)
(-9.12554e-27 -0.000124315 1.3945e-21 0.000124315 8.2795e-25 -3.33826 -1.14947e-21 3.33826 -8.18826e-25)
(1.14262e-27 -0.000129304 -5.08805e-21 0.000129304 1.67591e-26 -3.33826 5.05855e-21 3.33826 -1.79043e-26)
(-2.61805e-26 -0.000133745 6.64579e-21 0.000133745 3.78956e-26 -3.33826 -5.99245e-21 3.33826 -1.17148e-26)
(-1.08051e-26 -0.000139104 -1.20354e-20 0.000139104 4.35856e-27 -3.33826 1.22948e-20 3.33826 6.44781e-27)
)
;

boundaryField
{
    left
    {
        type            calculated;
        value           uniform (6.63966e-26 -0.000142928 1.91579e-20 0.000142928 1.36606e-26 3.33826 -1.76081e-20 -3.33826 -8.00577e-26);
    }
    right
    {
        type            calculated;
        value           uniform (-1.44238e-26 -0.000142944 1.85753e-20 0.000142944 -1.4372e-26 -3.33863 -1.82389e-20 3.33863 2.87977e-26);
    }
    beam
    {
        type            empty;
        value           nonuniform List<tensor> 0();
    }
}


// ************************************************************************* //
