/*--------------------------------*- C++ -*----------------------------------*\
| =========                 |                                                 |
| \\      /  F ield         | OpenFOAM: The Open Source CFD Toolbox           |
|  \\    /   O peration     | Version:  2312                                  |
|   \\  /    A nd           | Website:  www.openfoam.com                      |
|    \\/     M anipulation  |                                                 |
\*---------------------------------------------------------------------------*/
FoamFile
{
    version     2.0;
    format      ascii;
    arch        "LSB;label=32;scalar=64";
    class       surfaceTensorField;
    location    "2";
    object      CQW;
}
// * * * * * * * * * * * * * * * * * * * * * * * * * * * * * * * * * * * * * //

dimensions      [1 1 -2 0 0 0 0];

internalField   nonuniform List<tensor> 
59
(
(150.796 -6.13852e-20 -8.39712e-15 -6.13852e-20 150.796 2.48533e-24 -8.397e-15 2.48534e-24 150.796)
(150.796 -5.65067e-20 -9.91145e-15 -5.65067e-20 150.796 7.36763e-24 -9.91077e-15 7.3676e-24 150.796)
(150.796 -5.59296e-20 -7.07376e-15 -5.59296e-20 150.796 -2.76923e-24 -7.07399e-15 -2.76919e-24 150.796)
(150.796 -6.40223e-20 -8.61713e-15 -6.40223e-20 150.796 9.91433e-25 -8.61675e-15 9.91403e-25 150.796)
(150.796 -5.7192e-20 -7.25858e-15 -5.7192e-20 150.796 4.92549e-24 -7.25811e-15 4.9254e-24 150.796)
(150.796 -6.22107e-20 -6.63281e-15 -6.22107e-20 150.796 4.84988e-24 -6.63265e-15 4.84987e-24 150.796)
(150.796 -5.03142e-20 -4.08347e-15 -5.03142e-20 150.796 -9.91016e-24 -4.08326e-15 -9.91006e-24 150.796)
(150.796 -6.59428e-20 -5.92951e-15 -6.59428e-20 150.796 -5.25778e-25 -5.93017e-15 -5.25712e-25 150.796)
(150.796 -4.71393e-20 -3.28116e-15 -4.71393e-20 150.796 -1.05035e-23 -3.2806e-15 -1.05034e-23 150.796)
(150.796 -6.37107e-20 -4.96278e-15 -6.37107e-20 150.796 2.84135e-24 -4.96306e-15 2.84136e-24 150.796)
(150.796 -4.66763e-20 -2.75068e-15 -4.66763e-20 150.796 -4.84734e-24 -2.75017e-15 -4.8473e-24 150.796)
(150.796 -1.33681e-19 -1.39952e-15 -1.33681e-19 150.796 -3.90994e-23 -1.39944e-15 -3.90995e-23 150.796)
(150.796 -3.01167e-20 -4.24133e-15 -3.01167e-20 150.796 9.77825e-24 -4.24075e-15 9.77824e-24 150.796)
(150.796 -1.19483e-20 -3.17852e-15 -1.19483e-20 150.796 1.21293e-23 -3.17862e-15 1.21293e-23 150.796)
(150.796 -1.74792e-19 -1.83911e-15 -1.74792e-19 150.796 -9.16552e-25 -1.83959e-15 -9.16589e-25 150.796)
(150.796 -3.0618e-19 -2.93181e-15 -3.0618e-19 150.796 1.17248e-23 -2.93111e-15 1.17247e-23 150.796)
(150.796 -7.43831e-20 -4.41588e-15 -7.43831e-20 150.796 -8.73313e-25 -4.4156e-15 -8.73326e-25 150.796)
(150.796 -5.07888e-20 -2.64979e-15 -5.07888e-20 150.796 5.13519e-24 -2.65032e-15 5.13517e-24 150.796)
(150.796 -1.06908e-19 -3.36731e-15 -1.06908e-19 150.796 -2.4483e-25 -3.36723e-15 -2.44849e-25 150.796)
(150.796 -7.07599e-20 -2.18204e-15 -7.07599e-20 150.796 8.23876e-25 -2.18234e-15 8.23792e-25 150.796)
(150.796 1.49726e-19 -2.72367e-15 1.49726e-19 150.796 -4.31599e-24 -2.72374e-15 -4.31599e-24 150.796)
(150.796 -2.5614e-19 -1.06763e-15 -2.5614e-19 150.796 -4.9558e-24 -1.0679e-15 -4.95574e-24 150.796)
(150.796 4.77158e-19 -1.86314e-15 4.77158e-19 150.796 -7.07432e-24 -1.86347e-15 -7.07425e-24 150.796)
(150.796 7.98474e-20 -1.22591e-15 7.98474e-20 150.796 -2.96355e-24 -1.22592e-15 -2.96363e-24 150.796)
(150.796 3.46474e-19 -1.14294e-15 3.46474e-19 150.796 -2.56258e-24 -1.14312e-15 -2.56248e-24 150.796)
(150.796 1.57072e-18 -2.53133e-16 1.57072e-18 150.796 -1.38465e-23 -2.53074e-16 -1.38466e-23 150.796)
(150.796 -1.6063e-19 -8.60696e-17 -1.6063e-19 150.796 -3.10047e-26 -8.60337e-17 -3.10357e-26 150.796)
(150.796 -9.18615e-19 -2.41453e-16 -9.18615e-19 150.796 1.88352e-24 -2.41448e-16 1.88349e-24 150.796)
(150.796 -1.1361e-18 -1.82706e-16 -1.1361e-18 150.796 7.83176e-24 -1.82742e-16 7.83178e-24 150.796)
(150.796 6.44288e-20 4.98943e-21 6.44288e-20 150.796 4.13558e-24 4.98944e-21 4.1356e-24 150.796)
(150.796 1.14757e-18 1.14782e-16 1.14757e-18 150.796 1.43096e-24 1.14765e-16 1.43093e-24 150.796)
(150.796 -8.34492e-19 1.43232e-16 -8.34492e-19 150.796 -2.77284e-24 1.43297e-16 -2.77275e-24 150.796)
(150.796 -3.14551e-19 4.42681e-16 -3.14551e-19 150.796 -5.76409e-24 4.42597e-16 -5.76415e-24 150.796)
(150.796 4.45915e-19 6.91599e-16 4.45915e-19 150.796 1.16586e-24 6.91444e-16 1.16576e-24 150.796)
(150.796 6.93922e-19 1.08699e-15 6.93922e-19 150.796 1.99753e-23 1.08702e-15 1.99753e-23 150.796)
(150.796 4.06645e-19 7.54456e-16 4.06645e-19 150.796 7.11412e-24 7.5442e-16 7.11409e-24 150.796)
(150.796 5.72115e-19 1.71459e-15 5.72115e-19 150.796 -1.3887e-24 1.71474e-15 -1.38865e-24 150.796)
(150.796 5.02705e-19 1.61994e-15 5.02705e-19 150.796 2.0449e-24 1.61987e-15 2.04489e-24 150.796)
(150.796 -2.35364e-19 1.70033e-15 -2.35364e-19 150.796 -1.27568e-23 1.70029e-15 -1.27568e-23 150.796)
(150.796 5.48194e-20 3.31445e-15 5.48194e-20 150.796 -6.63698e-24 3.31419e-15 -6.63701e-24 150.796)
(150.796 1.37197e-19 4.89199e-15 1.37197e-19 150.796 1.37627e-23 4.89222e-15 1.37628e-23 150.796)
(150.796 1.7677e-19 3.96022e-15 1.7677e-19 150.796 -1.35891e-24 3.96012e-15 -1.35892e-24 150.796)
(150.796 9.91001e-20 3.88462e-15 9.91001e-20 150.796 6.62532e-24 3.88454e-15 6.62531e-24 150.796)
(150.796 4.56528e-20 2.13043e-15 4.56528e-20 150.796 -6.76944e-24 2.1305e-15 -6.76938e-24 150.796)
(150.796 1.68451e-19 4.28325e-15 1.68451e-19 150.796 5.01376e-24 4.28351e-15 5.01382e-24 150.796)
(150.796 1.65573e-19 7.84404e-16 1.65573e-19 150.796 4.86244e-24 7.84939e-16 4.86242e-24 150.796)
(150.796 1.313e-19 5.91488e-15 1.313e-19 150.796 3.67179e-24 5.91478e-15 3.67181e-24 150.796)
(150.796 1.69506e-19 3.78216e-15 1.69506e-19 150.796 8.19752e-24 3.78252e-15 8.19759e-24 150.796)
(150.796 1.11349e-19 4.44369e-15 1.11349e-19 150.796 8.82617e-26 4.44472e-15 8.82381e-26 150.796)
(150.796 1.5526e-19 5.42296e-15 1.5526e-19 150.796 6.92383e-24 5.42306e-15 6.92376e-24 150.796)
(150.796 1.11611e-19 3.40586e-15 1.11611e-19 150.796 7.35975e-25 3.40593e-15 7.35982e-25 150.796)
(150.796 1.39726e-19 4.00153e-15 1.39726e-19 150.796 6.17535e-24 4.00108e-15 6.17535e-24 150.796)
(150.796 2.67583e-20 3.99105e-15 2.67583e-20 150.796 2.32603e-24 3.99173e-15 2.32596e-24 150.796)
(150.796 9.3314e-20 8.37344e-15 9.3314e-20 150.796 5.64396e-24 8.37324e-15 5.64398e-24 150.796)
(150.796 3.38594e-20 7.86389e-15 3.38594e-20 150.796 7.73656e-24 7.8641e-15 7.73664e-24 150.796)
(150.796 9.80134e-21 5.52665e-15 9.80134e-21 150.796 -3.27531e-23 5.52637e-15 -3.2753e-23 150.796)
(150.796 -1.1801e-21 5.65565e-15 -1.1801e-21 150.796 -7.16173e-25 5.65528e-15 -7.16069e-25 150.796)
(150.796 2.61336e-20 7.04707e-15 2.61336e-20 150.796 -4.6859e-25 7.04679e-15 -4.68603e-25 150.796)
(150.796 1.03753e-20 5.72012e-15 1.03753e-20 150.796 2.57912e-25 5.71957e-15 2.57862e-25 150.796)
)
;

boundaryField
{
    left
    {
        type            calculated;
        value           uniform (150.796 -6.19928e-20 -8.89754e-15 -6.19928e-20 150.796 3.20195e-24 -8.89788e-15 3.20193e-24 150.796);
    }
    right
    {
        type            calculated;
        value           uniform (150.796 1.34577e-20 1.03822e-14 1.34577e-20 150.796 1.15136e-24 1.03815e-14 1.15129e-24 150.796);
    }
    beam
    {
        type            empty;
        value           nonuniform List<tensor> 0();
    }
}


// ************************************************************************* //
