/*--------------------------------*- C++ -*----------------------------------*\
| =========                 |                                                 |
| \\      /  F ield         | OpenFOAM: The Open Source CFD Toolbox           |
|  \\    /   O peration     | Version:  2312                                  |
|   \\  /    A nd           | Website:  www.openfoam.com                      |
|    \\/     M anipulation  |                                                 |
\*---------------------------------------------------------------------------*/
FoamFile
{
    version     2.0;
    format      ascii;
    arch        "LSB;label=32;scalar=64";
    class       volVectorField;
    location    "2";
    object      DTheta;
}
// * * * * * * * * * * * * * * * * * * * * * * * * * * * * * * * * * * * * * //

dimensions      [0 0 0 0 0 0 0];

internalField   nonuniform List<vector> 
60
(
(3.61456e-19 8.52668e-11 -1.55028e-23)
(3.59611e-19 8.50341e-11 -1.45994e-23)
(3.57832e-19 8.45691e-11 -1.41988e-23)
(3.5612e-19 8.38733e-11 -1.35104e-23)
(3.54474e-19 8.29485e-11 -1.30055e-23)
(3.52895e-19 8.17972e-11 -1.24024e-23)
(3.51381e-19 8.04225e-11 -1.18688e-23)
(3.49932e-19 7.8828e-11 -1.1304e-23)
(3.48549e-19 7.70183e-11 -1.07677e-23)
(3.47231e-19 7.4998e-11 -1.02239e-23)
(3.45977e-19 7.27727e-11 -9.69359e-24)
(3.44788e-19 7.03484e-11 -9.16375e-24)
(3.43663e-19 6.77317e-11 -8.64171e-24)
(3.42602e-19 6.49296e-11 -8.12265e-24)
(3.41604e-19 6.19498e-11 -7.60901e-24)
(3.40671e-19 5.88002e-11 -7.09889e-24)
(3.398e-19 5.54895e-11 -6.59298e-24)
(3.38994e-19 5.20266e-11 -6.09043e-24)
(3.3825e-19 4.84209e-11 -5.59131e-24)
(3.37569e-19 4.46823e-11 -5.09514e-24)
(3.36951e-19 4.08208e-11 -4.60178e-24)
(3.36396e-19 3.68469e-11 -4.11088e-24)
(3.35903e-19 3.27717e-11 -3.62226e-24)
(3.35473e-19 2.86058e-11 -3.13554e-24)
(3.35106e-19 2.43608e-11 -2.65053e-24)
(3.348e-19 2.00482e-11 -2.16693e-24)
(3.34558e-19 1.56799e-11 -1.68449e-24)
(3.34377e-19 1.12676e-11 -1.20295e-24)
(3.34259e-19 6.82359e-12 -7.22033e-25)
(3.34203e-19 2.35985e-12 -2.4148e-25)
(3.34209e-19 -2.11136e-12 2.38972e-25)
(3.34278e-19 -6.5778e-12 7.19587e-25)
(3.34409e-19 -1.10272e-11 1.20063e-24)
(3.34602e-19 -1.54475e-11 1.68236e-24)
(3.34857e-19 -1.98263e-11 2.16504e-24)
(3.35175e-19 -2.41518e-11 2.64895e-24)
(3.35555e-19 -2.8412e-11 3.13433e-24)
(3.35997e-19 -3.25952e-11 3.62146e-24)
(3.36503e-19 -3.66899e-11 4.1106e-24)
(3.3707e-19 -4.06848e-11 4.60202e-24)
(3.37701e-19 -4.45688e-11 5.09597e-24)
(3.38395e-19 -4.83312e-11 5.59276e-24)
(3.39151e-19 -5.19615e-11 6.09256e-24)
(3.39971e-19 -5.54499e-11 6.59584e-24)
(3.40854e-19 -5.87865e-11 7.10252e-24)
(3.418e-19 -6.19621e-11 7.61345e-24)
(3.4281e-19 -6.49678e-11 8.12793e-24)
(3.43884e-19 -6.77955e-11 8.64786e-24)
(3.45022e-19 -7.0437e-11 9.1708e-24)
(3.46225e-19 -7.28852e-11 9.70159e-24)
(3.47491e-19 -7.51332e-11 1.02329e-23)
(3.48823e-19 -7.71746e-11 1.07777e-23)
(3.50219e-19 -7.90039e-11 1.13149e-23)
(3.51681e-19 -8.06159e-11 1.18808e-23)
(3.53208e-19 -8.2006e-11 1.24154e-23)
(3.54801e-19 -8.31705e-11 1.30197e-23)
(3.5646e-19 -8.4106e-11 1.35255e-23)
(3.58185e-19 -8.481e-11 1.42152e-23)
(3.59977e-19 -8.52804e-11 1.46166e-23)
(3.61836e-19 -8.55159e-11 1.55217e-23)
)
;

boundaryField
{
    left
    {
        type            calculated;
        value           uniform (3.61456e-19 8.52668e-11 -1.55028e-23);
    }
    right
    {
        type            calculated;
        value           uniform (3.61836e-19 -8.55159e-11 1.55217e-23);
    }
    beam
    {
        type            empty;
    }
}


// ************************************************************************* //
