/*--------------------------------*- C++ -*----------------------------------*\
| =========                 |                                                 |
| \\      /  F ield         | OpenFOAM: The Open Source CFD Toolbox           |
|  \\    /   O peration     | Version:  2312                                  |
|   \\  /    A nd           | Website:  www.openfoam.com                      |
|    \\/     M anipulation  |                                                 |
\*---------------------------------------------------------------------------*/
FoamFile
{
    version     2.0;
    format      ascii;
    arch        "LSB;label=32;scalar=64";
    class       volVectorField;
    location    "2";
    object      DW;
}
// * * * * * * * * * * * * * * * * * * * * * * * * * * * * * * * * * * * * * //

dimensions      [0 1 0 0 0 0 0];

internalField   nonuniform List<vector> 
60
(
(-4.0292e-17 -6.68267e-28 -2.13168e-12)
(-1.38388e-16 -2.03975e-27 -6.38923e-12)
(-2.1435e-16 -3.38417e-27 -1.06293e-11)
(-2.91851e-16 -4.7373e-27 -1.48404e-11)
(-3.64802e-16 -6.06682e-27 -1.9011e-11)
(-4.38579e-16 -7.39033e-27 -2.31296e-11)
(-5.10728e-16 -8.69016e-27 -2.71852e-11)
(-5.63545e-16 -9.97293e-27 -3.11664e-11)
(-6.04216e-16 -1.12292e-26 -3.50626e-11)
(-6.32795e-16 -1.24597e-26 -3.8863e-11)
(-6.70187e-16 -1.36591e-26 -4.25573e-11)
(-6.72718e-16 -1.48257e-26 -4.61354e-11)
(-6.88539e-16 -1.59558e-26 -4.95874e-11)
(-6.90758e-16 -1.70467e-26 -5.29039e-11)
(-6.98433e-16 -1.80956e-26 -5.60759e-11)
(-6.88941e-16 -1.90996e-26 -5.90947e-11)
(-6.7935e-16 -2.00557e-26 -6.1952e-11)
(-6.64874e-16 -2.09617e-26 -6.46399e-11)
(-6.36598e-16 -2.18148e-26 -6.71511e-11)
(-5.95034e-16 -2.26125e-26 -6.94787e-11)
(-5.61595e-16 -2.33524e-26 -7.16163e-11)
(-5.22272e-16 -2.40324e-26 -7.3558e-11)
(-4.65179e-16 -2.46502e-26 -7.52983e-11)
(-3.91749e-16 -2.52038e-26 -7.68328e-11)
(-3.43885e-16 -2.56916e-26 -7.8157e-11)
(-2.82879e-16 -2.61116e-26 -7.92672e-11)
(-2.16889e-16 -2.64621e-26 -8.01604e-11)
(-1.36082e-16 -2.67421e-26 -8.08341e-11)
(-8.21788e-17 -2.69502e-26 -8.12864e-11)
(4.12376e-19 -2.70854e-26 -8.1516e-11)
(6.50566e-17 -2.71466e-26 -8.15222e-11)
(1.47995e-16 -2.71335e-26 -8.1305e-11)
(1.90843e-16 -2.70453e-26 -8.08648e-11)
(2.51746e-16 -2.68822e-26 -8.0203e-11)
(3.16349e-16 -2.66437e-26 -7.93211e-11)
(3.94348e-16 -2.63303e-26 -7.82216e-11)
(4.27246e-16 -2.59421e-26 -7.69075e-11)
(5.22912e-16 -2.54799e-26 -7.53824e-11)
(5.60402e-16 -2.49447e-26 -7.36502e-11)
(5.96131e-16 -2.43376e-26 -7.17158e-11)
(6.52675e-16 -2.36597e-26 -6.95845e-11)
(6.85525e-16 -2.29127e-26 -6.7262e-11)
(7.14184e-16 -2.20984e-26 -6.47546e-11)
(7.30431e-16 -2.12189e-26 -6.20693e-11)
(7.09462e-16 -2.02764e-26 -5.92134e-11)
(7.66508e-16 -1.92733e-26 -5.61947e-11)
(7.40099e-16 -1.82126e-26 -5.30214e-11)
(6.95305e-16 -1.70969e-26 -4.97023e-11)
(7.46485e-16 -1.59295e-26 -4.62465e-11)
(7.02582e-16 -1.47135e-26 -4.26634e-11)
(6.32971e-16 -1.34532e-26 -3.89629e-11)
(6.35557e-16 -1.21505e-26 -3.51552e-11)
(5.80867e-16 -1.08123e-26 -3.12507e-11)
(4.84939e-16 -9.43791e-27 -2.72602e-11)
(4.66404e-16 -8.03848e-27 -2.31947e-11)
(3.79655e-16 -6.60804e-27 -1.90652e-11)
(3.17652e-16 -5.16591e-27 -1.48833e-11)
(2.28086e-16 -3.69458e-27 -1.06604e-11)
(1.51838e-16 -2.23024e-27 -6.40808e-12)
(2.8852e-17 -7.34053e-28 -2.13815e-12)
)
;

boundaryField
{
    left
    {
        type            calculated;
        value           uniform (0 0 0);
    }
    right
    {
        type            calculated;
        value           uniform (0 0 0);
    }
    beam
    {
        type            empty;
    }
}


// ************************************************************************* //
