/*--------------------------------*- C++ -*----------------------------------*\
| =========                 |                                                 |
| \\      /  F ield         | OpenFOAM: The Open Source CFD Toolbox           |
|  \\    /   O peration     | Version:  2312                                  |
|   \\  /    A nd           | Website:  www.openfoam.com                      |
|    \\/     M anipulation  |                                                 |
\*---------------------------------------------------------------------------*/
FoamFile
{
    version     2.0;
    format      ascii;
    arch        "LSB;label=32;scalar=64";
    class       surfaceVectorField;
    location    "2";
    object      explicitMQ;
}
// * * * * * * * * * * * * * * * * * * * * * * * * * * * * * * * * * * * * * //

dimensions      [1 2 -2 0 0 0 0];

internalField   nonuniform List<vector> 
59
(
(-6.48356e-26 -4.65049e-08 -1.55998e-21)
(3.25551e-26 2.78291e-08 8.11265e-22)
(-2.32293e-26 -1.66532e-08 -6.00309e-22)
(9.21736e-27 9.96547e-09 2.47363e-22)
(-7.38146e-27 -5.96346e-09 -2.06018e-22)
(1.98466e-27 3.5686e-09 5.77004e-23)
(-1.88839e-27 -2.13549e-09 -5.72883e-23)
(1.22454e-27 1.2779e-09 3.88377e-23)
(-5.45588e-28 -7.64712e-10 -1.81279e-23)
(6.5374e-28 4.57609e-10 2.28075e-23)
(5.1571e-28 -2.73841e-10 1.89388e-23)
(-6.78866e-27 1.63867e-10 -2.63156e-22)
(1.77683e-26 -9.80624e-11 7.29288e-22)
(-1.48764e-26 5.86793e-11 -6.48753e-22)
(1.2459e-26 -3.51166e-11 5.79556e-22)
(-2.61289e-27 2.10121e-11 -1.30225e-22)
(-6.31341e-27 -1.25758e-11 -3.38862e-22)
(-1.48954e-27 7.52365e-12 -8.6611e-23)
(8.4743e-27 -4.50389e-12 5.37543e-22)
(-6.73592e-26 2.69356e-12 -4.70002e-21)
(1.29277e-25 -1.61316e-12 1.00226e-20)
(-1.6707e-25 9.63877e-13 -1.45717e-20)
(2.2605e-25 -5.7764e-13 2.25321e-20)
(-3.11655e-25 3.44215e-13 -3.62431e-20)
(4.26169e-25 -2.06039e-13 5.94708e-20)
(-5.62401e-25 1.21299e-13 -9.81044e-20)
(7.05895e-25 -7.09472e-14 1.64174e-19)
(-7.89457e-25 3.84137e-14 -2.75423e-19)
(6.60602e-25 -1.71371e-14 4.60885e-19)
(-2.42499e-36 -2.6019e-17 5.95103e-24)
(6.60645e-25 1.70912e-14 -4.61019e-19)
(-7.90549e-25 -3.84674e-14 2.75804e-19)
(7.09745e-25 7.09053e-14 -1.65082e-19)
(-5.68104e-25 -1.21358e-13 9.90992e-20)
(4.23542e-25 2.0601e-13 -5.9107e-20)
(-3.02116e-25 -3.44293e-13 3.51338e-20)
(2.14289e-25 5.77648e-13 -2.13605e-20)
(-1.41698e-25 -9.64004e-13 1.23588e-20)
(9.22106e-26 1.61323e-12 -7.14901e-21)
(-6.37128e-26 -2.69377e-12 4.44559e-21)
(3.75256e-26 4.50412e-12 -2.38035e-21)
(-2.13311e-26 -7.52413e-12 1.24032e-21)
(7.36575e-27 1.25765e-11 -3.95348e-22)
(-1.16109e-26 -2.10133e-11 5.78684e-22)
(2.15361e-26 3.51187e-11 -1.0018e-21)
(-1.47755e-26 -5.86827e-11 6.44354e-22)
(9.65036e-27 9.80684e-11 -3.96095e-22)
(-6.24505e-27 -1.63877e-10 2.42084e-22)
(4.63512e-27 2.73858e-10 -1.70221e-22)
(-2.94051e-27 -4.57636e-10 1.02588e-22)
(2.95891e-27 7.64758e-10 -9.83144e-23)
(-2.07152e-27 -1.27797e-09 6.57006e-23)
(2.11212e-27 2.13562e-09 -6.40759e-23)
(-7.81138e-28 -3.5688e-09 2.27102e-23)
(-4.09171e-27 5.96382e-09 1.14201e-22)
(6.70362e-27 -9.96604e-09 -1.79903e-22)
(-2.54743e-26 1.66542e-08 6.58328e-22)
(3.44676e-26 -2.78306e-08 -8.58923e-22)
(-6.46974e-26 4.65077e-08 1.55665e-21)
)
;

boundaryField
{
    left
    {
        type            calculated;
        value           uniform (6.45637e-18 7.77138e-08 1.50796e-13);
    }
    right
    {
        type            calculated;
        value           uniform (6.45637e-18 -7.77176e-08 -1.50796e-13);
    }
    beam
    {
        type            empty;
        value           nonuniform List<vector> 0();
    }
}


// ************************************************************************* //
