/*--------------------------------*- C++ -*----------------------------------*\
| =========                 |                                                 |
| \\      /  F ield         | OpenFOAM: The Open Source CFD Toolbox           |
|  \\    /   O peration     | Version:  2312                                  |
|   \\  /    A nd           | Website:  www.openfoam.com                      |
|    \\/     M anipulation  |                                                 |
\*---------------------------------------------------------------------------*/
FoamFile
{
    version     2.0;
    format      ascii;
    arch        "LSB;label=32;scalar=64";
    class       surfaceVectorField;
    location    "2";
    object      explicitQ;
}
// * * * * * * * * * * * * * * * * * * * * * * * * * * * * * * * * * * * * * //

dimensions      [1 1 -2 0 0 0 0];

oriented        oriented;

internalField   nonuniform List<vector> 
59
(
(19.4988 1.92324e-23 -0.000810409)
(19.4988 1.92323e-23 -0.000782464)
(19.4988 1.92312e-23 -0.000754519)
(19.4988 1.92312e-23 -0.000726573)
(19.4988 1.92278e-23 -0.000698628)
(19.4988 1.92293e-23 -0.000670683)
(19.4988 1.92207e-23 -0.000642738)
(19.4988 1.92292e-23 -0.000614793)
(19.4988 1.92075e-23 -0.000586848)
(19.4988 1.92223e-23 -0.000558902)
(19.4988 1.92076e-23 -0.000530957)
(19.4988 1.92096e-23 -0.000503012)
(19.4988 1.92014e-23 -0.000475067)
(19.4988 1.91976e-23 -0.000447122)
(19.4988 1.91929e-23 -0.000419177)
(19.4988 1.91827e-23 -0.000391232)
(19.4988 1.91833e-23 -0.000363286)
(19.4988 1.91649e-23 -0.000335341)
(19.4988 1.91769e-23 -0.000307396)
(19.4988 1.91365e-23 -0.000279451)
(19.4988 1.91609e-23 -0.000251506)
(19.4988 1.91335e-23 -0.000223561)
(19.4988 1.91344e-23 -0.000195619)
(19.4988 1.91208e-23 -0.000167671)
(19.4988 1.91119e-23 -0.000139729)
(19.4988 1.91028e-23 -0.00011178)
(19.4988 1.9091e-23 -8.38385e-05)
(19.4988 1.90774e-23 -5.58902e-05)
(19.4988 1.90849e-23 -2.79482e-05)
(19.4988 1.90139e-23 7.94567e-12)
(19.4988 1.89438e-23 2.7942e-05)
(19.4988 1.89497e-23 5.58902e-05)
(19.4988 1.89366e-23 8.38322e-05)
(19.4988 1.89209e-23 0.00011178)
(19.4988 1.89129e-23 0.000139722)
(19.4988 1.88976e-23 0.000167671)
(19.4988 1.8887e-23 0.000195613)
(19.4988 1.88745e-23 0.000223561)
(19.4988 1.88633e-23 0.000251503)
(19.4988 1.88511e-23 0.000279451)
(19.4988 1.88397e-23 0.000307393)
(19.4988 1.88279e-23 0.000335341)
(19.4988 1.88174e-23 0.000363283)
(19.4988 1.88065e-23 0.000391232)
(19.4988 1.87956e-23 0.000419174)
(19.4988 1.87863e-23 0.000447122)
(19.4988 1.87766e-23 0.000475064)
(19.4988 1.87672e-23 0.000503012)
(19.4988 1.87596e-23 0.000530954)
(19.4988 1.87515e-23 0.000558902)
(19.4988 1.87439e-23 0.000586844)
(19.4988 1.8738e-23 0.000614793)
(19.4988 1.87318e-23 0.000642735)
(19.4988 1.8727e-23 0.000670683)
(19.4988 1.87231e-23 0.000698625)
(19.4988 1.8719e-23 0.000726573)
(19.4988 1.87171e-23 0.000754515)
(19.4988 1.87152e-23 0.000782464)
(19.4988 1.87151e-23 0.000810406)
)
;

boundaryField
{
    left
    {
        type            calculated;
        value           uniform (-19.4988 -6.81181e-12 0.000838354);
    }
    right
    {
        type            calculated;
        value           uniform (19.4988 -6.81104e-12 0.000838354);
    }
    beam
    {
        type            empty;
        value           nonuniform List<vector> 0();
    }
}


// ************************************************************************* //
