/*--------------------------------*- C++ -*----------------------------------*\
| =========                 |                                                 |
| \\      /  F ield         | foam-extend: Open Source CFD                    |
|  \\    /   O peration     | Version:     4.1                                |
|   \\  /    A nd           | Web:         http://www.foam-extend.org         |
|    \\/     M anipulation  |                                                 |
\*---------------------------------------------------------------------------*/
FoamFile
{
    version     2.0;
    format      ascii;
    class       surfaceVectorField;
    location    "0";
    object      refWf;
}
// * * * * * * * * * * * * * * * * * * * * * * * * * * * * * * * * * * * * * //

dimensions      [0 1 0 0 0 0 0];

internalField   nonuniform List<vector> 
198
(
(0 0 0)
(0 0 0)
(0 0 0)
(0 0 0)
(0 0 0)
(0 0 0)
(0 0 0)
(0 0 0)
(0 0 0)
(0 0 0)
(0 0 0)
(0 0 0)
(0 0 0)
(0 0 0)
(0 0 0)
(0 0 0)
(0 0 0)
(0 0 0)
(0 0 0)
(0 0 0)
(0 0 0)
(0 0 0)
(0 0 0)
(0 0 0)
(0 0 0)
(0 0 0)
(0 0 0)
(0 0 0)
(0 0 0)
(0 0 0)
(0 0 0)
(0 0 0)
(0 0 0)
(0 0 0)
(0 0 0)
(0 0 0)
(0 0 0)
(0 0 0)
(0 0 0)
(0 0 0)
(0 0 0)
(0 0 0)
(0 0 0)
(0 0 0)
(0 0 0)
(0 0 0)
(0 0 0)
(0 0 0)
(0 0 0)
(0 0 0)
(0 0 0)
(0 0 0)
(0 0 0)
(0 0 0)
(0 0 0)
(0 0 0)
(0 0 0)
(0 0 0)
(0 0 0)
(0 0 0)
(0 0 0)
(0 0 0)
(0 0 0)
(0 0 0)
(0 0 0)
(0 0 0)
(0 0 0)
(0 0 0)
(0 0 0)
(0 0 0)
(0 0 0)
(0 0 0)
(0 0 0)
(0 0 0)
(0 0 0)
(0 0 0)
(0 0 0)
(0 0 0)
(0 0 0)
(0 0 0)
(0 0 0)
(0 0 0)
(0 0 0)
(0 0 0)
(0 0 0)
(0 0 0)
(0 0 0)
(0 0 0)
(0 0 0)
(0 0 0)
(0 0 0)
(0 0 0)
(0 0 0)
(0 0 0)
(0 0 0)
(0 0 0)
(0 0 0)
(0 0 0)
(0 0 0)
(0.3615 0.01 0.4025)
(0.3565 0.01 0.3975)
(0.3515 0.01 0.3925)
(0.3465 0.01 0.3875)
(0.3415 0.01 0.3825)
(0.3365 0.01 0.3775)
(0.3315 0.01 0.3725)
(0.3265 0.01 0.3675)
(0.3215 0.01 0.3625)
(0.3165 0.01 0.3575)
(0.3115 0.01 0.3525)
(0.3065 0.01 0.3475)
(0.3015 0.01 0.3425)
(0.2965 0.01 0.3375)
(0.2915 0.01 0.3325)
(0.2865 0.01 0.3275)
(0.2815 0.01 0.3225)
(0.2765 0.01 0.3175)
(0.2715 0.01 0.3125)
(0.2665 0.01 0.3075)
(0.2615 0.01 0.3025)
(0.2565 0.01 0.2975)
(0.2515 0.01 0.2925)
(0.2465 0.01 0.2875)
(0.2415 0.01 0.2825)
(0.2365 0.01 0.2775)
(0.2315 0.01 0.2725)
(0.2265 0.01 0.2675)
(0.2215 0.01 0.2625)
(0.2165 0.01 0.2575)
(0.2115 0.01 0.2525)
(0.2065 0.01 0.2475)
(0.2015 0.01 0.2425)
(0.1965 0.01 0.2375)
(0.1915 0.01 0.2325)
(0.1865 0.01 0.2275)
(0.1815 0.01 0.2225)
(0.1765 0.01 0.2175)
(0.1715 0.01 0.2125)
(0.1665 0.01 0.2075)
(0.1615 0.01 0.2025)
(0.1565 0.01 0.1975)
(0.1515 0.01 0.1925)
(0.1465 0.01 0.1875)
(0.1415 0.01 0.1825)
(0.1365 0.01 0.1775)
(0.1315 0.01 0.1725)
(0.1265 0.01 0.1675)
(0.1215 0.01 0.1625)
(0.1165 0.01 0.1575)
(0.1115 0.01 0.1525)
(0.1065 0.01 0.1475)
(0.1015 0.01 0.1425)
(0.0965 0.01 0.1375)
(0.0915 0.01 0.1325)
(0.0865 0.01 0.1275)
(0.0815 0.01 0.1225)
(0.0765 0.01 0.1175)
(0.0715 0.01 0.1125)
(0.0665 0.01 0.1075)
(0.0615 0.01 0.1025)
(0.0565 0.01 0.0975)
(0.0515 0.01 0.0925)
(0.0465 0.01 0.0875)
(0.0415 0.01 0.0825)
(0.0365 0.01 0.0775)
(0.0315 0.01 0.0725)
(0.0265 0.01 0.0675)
(0.0215 0.01 0.0625)
(0.0165 0.01 0.0575)
(0.0115 0.01 0.0525)
(0.0065 0.01 0.0475)
(0.0015 0.01 0.0425)
(-0.0035 0.01 0.0375)
(-0.0085 0.01 0.0325)
(-0.0135 0.01 0.0275)
(-0.0185 0.01 0.0225)
(-0.0235 0.01 0.0175)
(-0.0285 0.01 0.0125)
(-0.0335 0.01 0.0075)
(-0.0385 0.01 0.0025)
(-0.0435 0.01 -0.0025)
(-0.0485 0.01 -0.0075)
(-0.0535 0.01 -0.0125)
(-0.0585 0.01 -0.0175)
(-0.0635 0.01 -0.0225)
(-0.0685 0.01 -0.0275)
(-0.0735 0.01 -0.0325)
(-0.0785 0.01 -0.0375)
(-0.0835 0.01 -0.0425)
(-0.0885 0.01 -0.0475)
(-0.0935 0.01 -0.0525)
(-0.0985 0.01 -0.0575)
(-0.1035 0.01 -0.0625)
(-0.1085 0.01 -0.0675)
(-0.1135 0.01 -0.0725)
(-0.1185 0.01 -0.0775)
(-0.1235 0.01 -0.0825)
(-0.1285 0.01 -0.0875)
)
;

boundaryField
{
    left_0
    {
        type            calculated;
        value           uniform (0 0 0);
    }
    left_1
    {
        type            calculated;
        value           uniform (0.3665 0.01 0.4075);
    }
    right_0
    {
        type            calculated;
        value           uniform (0 0 0);
    }
    right_1
    {
        type            calculated;
        value           uniform (-0.1335 0.01 -0.0925);
    }
    beam
    {
        type            empty;
    }
}


// ************************************************************************* //
