/*--------------------------------*- C++ -*----------------------------------*\
| =========                 |                                                 |
| \\      /  F ield         | foam-extend: Open Source CFD                    |
|  \\    /   O peration     | Version:     4.1                                |
|   \\  /    A nd           | Web:         http://www.foam-extend.org         |
|    \\/     M anipulation  |                                                 |
\*---------------------------------------------------------------------------*/
FoamFile
{
    version     2.0;
    format      ascii;
    class       volVectorField;
    location    "0";
    object      refW;
}
// * * * * * * * * * * * * * * * * * * * * * * * * * * * * * * * * * * * * * //

dimensions      [0 1 0 0 0 0 0];

internalField   nonuniform List<vector> 
200
(
(0 0 0)
(0 0 0)
(0 0 0)
(0 0 0)
(0 0 0)
(0 0 0)
(0 0 0)
(0 0 0)
(0 0 0)
(0 0 0)
(0 0 0)
(0 0 0)
(0 0 0)
(0 0 0)
(0 0 0)
(0 0 0)
(0 0 0)
(0 0 0)
(0 0 0)
(0 0 0)
(0 0 0)
(0 0 0)
(0 0 0)
(0 0 0)
(0 0 0)
(0 0 0)
(0 0 0)
(0 0 0)
(0 0 0)
(0 0 0)
(0 0 0)
(0 0 0)
(0 0 0)
(0 0 0)
(0 0 0)
(0 0 0)
(0 0 0)
(0 0 0)
(0 0 0)
(0 0 0)
(0 0 0)
(0 0 0)
(0 0 0)
(0 0 0)
(0 0 0)
(0 0 0)
(0 0 0)
(0 0 0)
(0 0 0)
(0 0 0)
(0 0 0)
(0 0 0)
(0 0 0)
(0 0 0)
(0 0 0)
(0 0 0)
(0 0 0)
(0 0 0)
(0 0 0)
(0 0 0)
(0 0 0)
(0 0 0)
(0 0 0)
(0 0 0)
(0 0 0)
(0 0 0)
(0 0 0)
(0 0 0)
(0 0 0)
(0 0 0)
(0 0 0)
(0 0 0)
(0 0 0)
(0 0 0)
(0 0 0)
(0 0 0)
(0 0 0)
(0 0 0)
(0 0 0)
(0 0 0)
(0 0 0)
(0 0 0)
(0 0 0)
(0 0 0)
(0 0 0)
(0 0 0)
(0 0 0)
(0 0 0)
(0 0 0)
(0 0 0)
(0 0 0)
(0 0 0)
(0 0 0)
(0 0 0)
(0 0 0)
(0 0 0)
(0 0 0)
(0 0 0)
(0 0 0)
(0 0 0)
(0.364 0.01 0.405)
(0.359 0.01 0.4)
(0.354 0.01 0.395)
(0.349 0.01 0.39)
(0.344 0.01 0.385)
(0.339 0.01 0.38)
(0.334 0.01 0.375)
(0.329 0.01 0.37)
(0.324 0.01 0.365)
(0.319 0.01 0.36)
(0.314 0.01 0.355)
(0.309 0.01 0.35)
(0.304 0.01 0.345)
(0.299 0.01 0.34)
(0.294 0.01 0.335)
(0.289 0.01 0.33)
(0.284 0.01 0.325)
(0.279 0.01 0.32)
(0.274 0.01 0.315)
(0.269 0.01 0.31)
(0.264 0.01 0.305)
(0.259 0.01 0.3)
(0.254 0.01 0.295)
(0.249 0.01 0.29)
(0.244 0.01 0.285)
(0.239 0.01 0.28)
(0.234 0.01 0.275)
(0.229 0.01 0.27)
(0.224 0.01 0.265)
(0.219 0.01 0.26)
(0.214 0.01 0.255)
(0.209 0.01 0.25)
(0.204 0.01 0.245)
(0.199 0.01 0.24)
(0.194 0.01 0.235)
(0.189 0.01 0.23)
(0.184 0.01 0.225)
(0.179 0.01 0.22)
(0.174 0.01 0.215)
(0.169 0.01 0.21)
(0.164 0.01 0.205)
(0.159 0.01 0.2)
(0.154 0.01 0.195)
(0.149 0.01 0.19)
(0.144 0.01 0.185)
(0.139 0.01 0.18)
(0.134 0.01 0.175)
(0.129 0.01 0.17)
(0.124 0.01 0.165)
(0.119 0.01 0.16)
(0.114 0.01 0.155)
(0.109 0.01 0.15)
(0.104 0.01 0.145)
(0.099 0.01 0.14)
(0.094 0.01 0.135)
(0.089 0.01 0.13)
(0.084 0.01 0.125)
(0.079 0.01 0.12)
(0.074 0.01 0.115)
(0.069 0.01 0.11)
(0.064 0.01 0.105)
(0.059 0.01 0.1)
(0.054 0.01 0.095)
(0.049 0.01 0.09)
(0.044 0.01 0.085)
(0.039 0.01 0.08)
(0.034 0.01 0.075)
(0.029 0.01 0.07)
(0.024 0.01 0.065)
(0.019 0.01 0.06)
(0.014 0.01 0.055)
(0.009 0.01 0.05)
(0.004 0.01 0.045)
(-0.001 0.01 0.04)
(-0.006 0.01 0.035)
(-0.011 0.01 0.03)
(-0.016 0.01 0.025)
(-0.021 0.01 0.02)
(-0.026 0.01 0.015)
(-0.031 0.01 0.01)
(-0.036 0.01 0.005)
(-0.041 0.01 -1.66484e-16)
(-0.046 0.01 -0.005)
(-0.051 0.01 -0.01)
(-0.056 0.01 -0.015)
(-0.061 0.01 -0.02)
(-0.066 0.01 -0.025)
(-0.071 0.01 -0.03)
(-0.076 0.01 -0.035)
(-0.081 0.01 -0.04)
(-0.086 0.01 -0.045)
(-0.091 0.01 -0.05)
(-0.096 0.01 -0.055)
(-0.101 0.01 -0.06)
(-0.106 0.01 -0.065)
(-0.111 0.01 -0.07)
(-0.116 0.01 -0.075)
(-0.121 0.01 -0.08)
(-0.126 0.01 -0.085)
(-0.131 0.01 -0.09)
)
;

boundaryField
{
    left_0
    {
        type            calculated;
        value           uniform (0 0 0);
    }
    left_1
    {
        type            calculated;
        value           uniform (0.3665 0.01 0.4075);
    }
    right_0
    {
        type            calculated;
        value           uniform (0 0 0);
    }
    right_1
    {
        type            calculated;
        value           uniform (-0.1335 0.01 -0.0925);
    }
    beam
    {
        type            empty;
    }
}


// ************************************************************************* //
