/*--------------------------------*- C++ -*----------------------------------*\
| =========                 |                                                 |
| \\      /  F ield         | OpenFOAM: The Open Source CFD Toolbox           |
|  \\    /   O peration     | Version:  2312                                  |
|   \\  /    A nd           | Website:  www.openfoam.com                      |
|    \\/     M anipulation  |                                                 |
\*---------------------------------------------------------------------------*/
FoamFile
{
    version     2.0;
    format      ascii;
    arch        "LSB;label=32;scalar=64";
    class       surfaceVectorField;
    location    "0.12/beam";
    object      Gamma;
}
// * * * * * * * * * * * * * * * * * * * * * * * * * * * * * * * * * * * * * //

dimensions      [0 0 0 0 0 0 0];

oriented        oriented;

internalField   nonuniform List<vector> 
59
(
(0.0003897194901 7.401017405e-18 1.424135409e-07)
(0.0003897195305 7.216325499e-18 1.431146931e-07)
(0.0003897196037 6.90103244e-18 1.441878006e-07)
(0.0003897197186 6.44463258e-18 1.454941586e-07)
(0.0003897198868 5.833835722e-18 1.468485472e-07)
(0.0003897201232 5.053792464e-18 1.480279986e-07)
(0.0003897204448 4.090276593e-18 1.487825185e-07)
(0.0003897208704 2.931090308e-18 1.488473973e-07)
(0.0003897214199 1.568490132e-18 1.479571322e-07)
(0.0003897221138 1.655795397e-21 1.458598448e-07)
(0.0003897229721 -1.761507257e-18 1.423318185e-07)
(0.0003897240133 -3.702811711e-18 1.371917959e-07)
(0.0003897252541 -5.791364677e-18 1.303136986e-07)
(0.0003897267079 -7.982707271e-18 1.216380258e-07)
(0.0003897283845 -1.021860823e-17 1.111801653e-07)
(0.0003897302893 -1.242755621e-17 9.903621311e-08)
(0.0003897324232 -1.452620218e-17 8.538492579e-08)
(0.0003897347822 -1.642298357e-17 7.04862313e-08)
(0.0003897373576 -1.802225429e-17 5.467569443e-08)
(0.0003897401371 -1.922945218e-17 3.835536339e-08)
(0.0003897431047 -1.995943166e-17 2.198064243e-08)
(0.0003897462423 -2.014461718e-17 6.043694685e-09)
(0.0003897495304 -1.9744898e-17 -8.944435071e-09)
(0.0003897529513 -1.875696507e-17 -2.248572278e-08)
(0.0003897564859 -1.722574353e-17 -3.410235588e-08)
(0.0003897601211 -1.525095746e-17 -4.338880632e-08)
(0.0003897638441 -1.299683579e-17 -5.002076087e-08)
(0.0003897676495 -1.069182451e-17 -5.380463196e-08)
(0.0003897715332 -8.631691083e-18 -5.469730444e-08)
(0.000389775499 -7.17937771e-18 -5.284318501e-08)
(0.0003897795516 -6.725062928e-18 -4.859678669e-08)
(0.0003897837031 -7.683165783e-18 -4.253362061e-08)
(0.0003897879648 -1.048557412e-17 -3.545633103e-08)
(0.0003897923546 -1.551974412e-17 -2.836002232e-08)
(0.0003897968874 -2.309592186e-17 -2.239345227e-08)
(0.0003898015829 -3.341646774e-17 -1.876214583e-08)
(0.0003898064557 -4.652219193e-17 -1.862161433e-08)
(0.0003898115228 -6.227718628e-17 -2.292454718e-08)
(0.0003898167924 -8.031787119e-17 -3.22566242e-08)
(0.000389822272 -1.000682831e-16 -4.668277683e-08)
(0.0003898279566 -1.207063216e-16 -6.559693581e-08)
(0.0003898338381 -1.412163905e-16 -8.767858492e-08)
(0.0003898398957 -1.603817884e-16 -1.108835045e-07)
(0.000389846108 -1.768671423e-16 -1.326330873e-07)
(0.0003898524463 -1.892368935e-16 -1.500542147e-07)
(0.0003898588897 -1.960463014e-16 -1.604220561e-07)
(0.0003898654171 -1.958825193e-16 -1.616054444e-07)
(0.0003898720202 -1.874419896e-16 -1.525594092e-07)
(0.0003898786898 -1.695967369e-16 -1.33690757e-07)
(0.0003898854246 -1.414444391e-16 -1.069974378e-07)
(0.0003898922152 -1.024057109e-16 -7.596844679e-08)
(0.0003898990548 -5.221587994e-17 -4.509433975e-08)
(0.000389905929 9.001594769e-18 -1.925669822e-08)
(0.0003899128325 8.093410704e-17 -2.964122871e-09)
(0.0003899197603 1.632612532e-16 8.068458177e-11)
(0.0003899267217 2.564130922e-16 -1.302890942e-08)
(0.0003899337244 3.625316517e-16 -4.518567548e-08)
(0.0003899407816 4.874697865e-16 -1.008872409e-07)
(0.000389947891 6.433640901e-16 -1.885143999e-07)
)
;

boundaryField
{
    left
    {
        type            calculated;
        value           uniform (-0.0003897194772 -4.517968094e-14 -1.421701844e-07);
    }
    right
    {
        type            calculated;
        value           uniform (0.0003899550338 -4.431407806e-14 -3.234720998e-07);
    }
    beam
    {
        type            empty;
        value           nonuniform List<vector> 0();
    }
}


// ************************************************************************* //
