/*--------------------------------*- C++ -*----------------------------------*\
| =========                 |                                                 |
| \\      /  F ield         | OpenFOAM: The Open Source CFD Toolbox           |
|  \\    /   O peration     | Version:  2312                                  |
|   \\  /    A nd           | Website:  www.openfoam.com                      |
|    \\/     M anipulation  |                                                 |
\*---------------------------------------------------------------------------*/
FoamFile
{
    version     2.0;
    format      ascii;
    arch        "LSB;label=32;scalar=64";
    class       surfaceVectorField;
    location    "0.12/beam";
    object      K;
}
// * * * * * * * * * * * * * * * * * * * * * * * * * * * * * * * * * * * * * //

dimensions      [0 -1 0 0 0 0 0];

oriented        oriented;

internalField   nonuniform List<vector> 
59
(
(1.099239551e-18 0.001575590395 -8.229137923e-14)
(2.228055991e-18 0.003156411635 -1.632234551e-13)
(3.415985888e-18 0.004747058649 -2.413875069e-13)
(4.693950942e-18 0.006350883301 -3.152794408e-13)
(6.0937907e-18 0.007969443872 -3.832630161e-13)
(7.649668936e-18 0.009602038482 -4.435465935e-13)
(9.395452437e-18 0.01124534643 -4.9417724e-13)
(1.136346854e-17 0.01289319705 -5.330560332e-13)
(1.359084578e-17 0.01453648383 -5.579732127e-13)
(1.609683623e-17 0.01616323543 -5.666711737e-13)
(1.889809751e-17 0.01775884704 -5.569320741e-13)
(2.20079646e-17 0.01930647143 -5.266825145e-13)
(2.542157269e-17 0.02078755948 -4.741208332e-13)
(2.910863833e-17 0.02218253441 -3.978622564e-13)
(3.301636352e-17 0.02347157504 -2.970907628e-13)
(3.70656081e-17 0.02463547733 -1.717085296e-13)
(4.113683009e-17 0.02565655896 -2.247534386e-14)
(4.510237083e-17 0.02651956646 1.48880705e-13)
(4.881086916e-17 0.02721254351 3.395949751e-13)
(5.208097e-17 0.02772761781 5.458493902e-13)
(5.474219681e-17 0.02806166472 7.628308541e-13)
(5.664053982e-17 0.02821680432 9.848741225e-13)
(5.766190227e-17 0.02820071525 1.205730065e-12)
(5.774410258e-17 0.0280266634 1.418909133e-12)
(5.690798493e-17 0.02771331428 1.618139286e-12)
(5.52656988e-17 0.02728422648 1.797955405e-12)
(5.303661367e-17 0.02676700026 1.954353734e-12)
(5.054174052e-17 0.02619210375 2.0855045e-12)
(4.821079616e-17 0.02559131657 2.192480198e-12)
(4.690689136e-17 0.0249958579 2.280000548e-12)
(4.685320195e-17 0.02443418536 2.356955315e-12)
(4.833073691e-17 0.02392960743 2.436689585e-12)
(5.229808919e-17 0.02349780238 2.537234692e-12)
(5.934180509e-17 0.0231444942 2.68115905e-12)
(6.996985943e-17 0.022863536 2.894894746e-12)
(8.460474983e-17 0.02263574398 3.207712888e-12)
(1.035130033e-16 0.02242885949 3.650231805e-12)
(1.268215814e-16 0.02219894815 4.252544018e-12)
(1.544000812e-16 0.02189355458 5.041977016e-12)
(1.858689043e-16 0.02145661777 6.040656866e-12)
(2.203890192e-16 0.02083507027 7.262968683e-12)
(2.566290541e-16 0.01998651044 8.713123048e-12)
(2.924832128e-16 0.01888716755 1.038297012e-11)
(3.250988607e-16 0.01753886978 1.225022989e-11)
(3.507741253e-16 0.01597363724 1.427727903e-11)
(3.653587591e-16 0.01425449283 1.641054671e-11)
(3.647563688e-16 0.01247135675 1.858063874e-11)
(3.458902501e-16 0.01073174323 2.070312097e-11)
(3.077380127e-16 0.00914670703 2.268009461e-11)
(2.521605031e-16 0.007813988703 2.44024195e-11)
(1.843552738e-16 0.006800944287 2.575274981e-11)
(1.120906874e-16 0.006130737177 2.66090666e-11)
(4.447913392e-17 0.005774625222 2.684856924e-11)
(-1.027593014e-17 0.005651862225 2.635087575e-11)
(-4.646216008e-17 0.005636233345 2.499911829e-11)
(-6.199951269e-17 0.005564939614 2.267584041e-11)
(-5.822815323e-17 0.005243100071 1.924937738e-11)
(-3.95941776e-17 0.004434962119 1.454385022e-11)
(-1.458221208e-17 0.00283353191 8.283857162e-12)
)
;

boundaryField
{
    left
    {
        type            calculated;
        value           uniform (2.237826558e-30 2.850767811e-28 5.60279746e-34);
    }
    right
    {
        type            calculated;
        value           uniform (-5.30870627e-31 -2.524758778e-27 -1.387353132e-31);
    }
    beam
    {
        type            empty;
        value           nonuniform List<vector> 0();
    }
}


// ************************************************************************* //
