/*--------------------------------*- C++ -*----------------------------------*\
| =========                 |                                                 |
| \\      /  F ield         | OpenFOAM: The Open Source CFD Toolbox           |
|  \\    /   O peration     | Version:  2312                                  |
|   \\  /    A nd           | Website:  www.openfoam.com                      |
|    \\/     M anipulation  |                                                 |
\*---------------------------------------------------------------------------*/
FoamFile
{
    version     2.0;
    format      ascii;
    arch        "LSB;label=32;scalar=64";
    class       surfaceVectorField;
    location    "0.12/beam";
    object      M;
}
// * * * * * * * * * * * * * * * * * * * * * * * * * * * * * * * * * * * * * //

dimensions      [1 2 -2 0 0 0 0];

oriented        oriented;

internalField   nonuniform List<vector> 
59
(
(2.934804824e-20 9.503740678e-07 -4.961413975e-17)
(5.779242993e-20 1.903903308e-06 -9.840829144e-17)
(8.475351378e-20 2.863359318e-06 -1.455326681e-16)
(1.103107601e-19 3.830763895e-06 -1.900799727e-16)
(1.355595573e-19 4.807056971e-06 -2.310632246e-16)
(1.629950286e-19 5.791815184e-06 -2.674017422e-16)
(1.969196453e-19 6.783035532e-06 -2.979175937e-16)
(2.438613138e-19 7.776995956e-06 -3.213448341e-16)
(3.129768779e-19 8.768203534e-06 -3.363507129e-16)
(4.163974597e-19 9.749437324e-06 -3.415736748e-16)
(5.694590417e-19 1.071188791e-05 -3.356762064e-16)
(7.90753612e-19 1.164539327e-05 -3.174079791e-16)
(1.101913647e-18 1.253876485e-05 -2.856826317e-16)
(1.527036286e-18 1.33801942e-05 -2.39665321e-16)
(2.091671466e-18 1.415772546e-05 -1.788643192e-16)
(2.8213175e-18 1.485977503e-05 -1.032211457e-16)
(3.739392047e-18 1.547567717e-05 -1.31946422e-17)
(4.864746218e-18 1.599623122e-05 9.017228562e-17)
(6.208849002e-18 1.641422527e-05 2.052115359e-16)
(7.772832548e-18 1.672491088e-05 3.296196729e-16)
(9.544779191e-18 1.692640329e-05 4.604932149e-16)
(1.149765131e-17 1.701998133e-05 5.944148699e-16)
(1.358866741e-17 1.701027663e-05 7.276153995e-16)
(1.576021814e-17 1.690529099e-05 8.561808336e-16)
(1.794315649e-17 1.671628318e-05 9.763286975e-16)
(2.006324652e-17 1.645746343e-05 1.084763505e-15)
(2.205060698e-17 1.614547982e-05 1.179071419e-15)
(2.38523604e-17 1.579871029e-05 1.258149935e-15)
(2.544821444e-17 1.543632388e-05 1.322646932e-15)
(2.686903991e-17 1.507715154e-05 1.375409695e-15)
(2.821481687e-17 1.473835853e-05 1.421799888e-15)
(2.967092941e-17 1.443400419e-05 1.469865222e-15)
(3.152488018e-17 1.417354543e-05 1.530478282e-15)
(3.417752542e-17 1.396043488e-05 1.617246118e-15)
(3.814498818e-17 1.379096482e-05 1.746103746e-15)
(4.405246452e-17 1.365356387e-05 1.934695899e-15)
(5.261626211e-17 1.352877404e-05 2.20147723e-15)
(6.461404847e-17 1.339009474e-05 2.564582802e-15)
(8.084144759e-17 1.320588561e-05 3.040478036e-15)
(1.020566594e-16 1.294233144e-05 3.642490074e-15)
(1.289124675e-16 1.25674227e-05 4.379277354e-15)
(1.618785032e-16 1.205558328e-05 5.253363508e-15)
(2.011546078e-16 1.139247504e-05 6.259821134e-15)
(2.465793636e-16 1.057920071e-05 7.385206996e-15)
(2.975385133e-16 9.635074353e-06 8.606833296e-15)
(3.528813021e-16 8.598110515e-06 9.892406318e-15)
(4.108584881e-16 7.522547793e-06 1.1200104e-14)
(4.690968874e-16 6.473237274e-06 1.247905009e-14)
(5.246326673e-16 5.517165627e-06 1.367026407e-14)
(5.740152381e-16 4.71328859e-06 1.470799934e-14)
(6.134926263e-16 4.102234381e-06 1.552156851e-14)
(6.392581651e-16 3.697974835e-06 1.603746589e-14)
(6.477268876e-16 3.483173089e-06 1.618170531e-14)
(6.357731392e-16 3.409124168e-06 1.58817421e-14)
(6.008596386e-16 3.399697047e-06 1.506712889e-14)
(5.409731515e-16 3.356693666e-06 1.366704111e-14)
(4.542943018e-16 3.16256456e-06 1.160206838e-14)
(3.385081711e-16 2.67510706e-06 8.766128301e-15)
(1.896200743e-16 1.709146779e-06 4.993125745e-15)
)
;

boundaryField
{
    left
    {
        type            calculated;
        value           uniform (2.699644763e-33 1.719543233e-31 3.355787152e-36);
    }
    right
    {
        type            calculated;
        value           uniform (-6.434866841e-34 -1.522899148e-30 -5.544098915e-35);
    }
    beam
    {
        type            empty;
        value           nonuniform List<vector> 0();
    }
}


// ************************************************************************* //
