/*--------------------------------*- C++ -*----------------------------------*\
| =========                 |                                                 |
| \\      /  F ield         | OpenFOAM: The Open Source CFD Toolbox           |
|  \\    /   O peration     | Version:  2312                                  |
|   \\  /    A nd           | Website:  www.openfoam.com                      |
|    \\/     M anipulation  |                                                 |
\*---------------------------------------------------------------------------*/
FoamFile
{
    version     2.0;
    format      ascii;
    arch        "LSB;label=32;scalar=64";
    class       pointVectorField;
    location    "0.12/beam";
    object      pointW;
}
// * * * * * * * * * * * * * * * * * * * * * * * * * * * * * * * * * * * * * //

dimensions      [0 1 0 0 0 0 0];

internalField   nonuniform List<vector> 
1952
(
(4.471450754e-06 9.624151171e-17 2.495568476e-09)
(4.385531828e-06 9.443400922e-17 2.447616109e-09)
(4.131083923e-06 8.890457814e-17 2.305605767e-09)
(3.717877159e-06 8.023096076e-17 2.074990267e-09)
(3.161796364e-06 6.808789643e-17 1.764635118e-09)
(2.484203896e-06 5.334274689e-17 1.386462898e-09)
(1.711145953e-06 3.686287386e-17 9.550102944e-10)
(8.723364456e-07 1.908195824e-17 4.868609836e-10)
(1.155982522e-16 0 -9.611234893e-17)
(-8.723364454e-07 -1.908195824e-17 -4.868611721e-10)
(-1.711145953e-06 -3.686287386e-17 -9.55010472e-10)
(-2.484203895e-06 -5.334274689e-17 -1.386463058e-09)
(-3.161796364e-06 -6.808789643e-17 -1.764635254e-09)
(-3.717877158e-06 -8.023096076e-17 -2.074990374e-09)
(-4.131083923e-06 -8.890457814e-17 -2.30560584e-09)
(-4.385531828e-06 -9.443400922e-17 -2.447616146e-09)
(-4.471450754e-06 -9.624151171e-17 -2.495568476e-09)
(-4.385531828e-06 -9.443400922e-17 -2.447616109e-09)
(-4.131083923e-06 -8.890457814e-17 -2.305605767e-09)
(-3.717877159e-06 -8.023096076e-17 -2.074990267e-09)
(-3.161796364e-06 -6.808789643e-17 -1.764635118e-09)
(-2.484203896e-06 -5.334274689e-17 -1.386462898e-09)
(-1.711145953e-06 -3.686287386e-17 -9.550102944e-10)
(-8.723364456e-07 -1.908195824e-17 -4.868609836e-10)
(-1.155986763e-16 0 9.611234869e-17)
(8.723364454e-07 1.908195824e-17 4.868611721e-10)
(1.711145953e-06 3.686287386e-17 9.55010472e-10)
(2.484203895e-06 5.334274689e-17 1.386463058e-09)
(3.161796364e-06 6.808789643e-17 1.764635254e-09)
(3.717877158e-06 8.023096076e-17 2.074990374e-09)
(4.131083923e-06 8.890457814e-17 2.30560584e-09)
(4.385531828e-06 9.443400922e-17 2.447616146e-09)
(2.155989182e-05 2.335075641e-15 4.874885284e-05)
(2.147665374e-05 2.333203075e-15 4.874880784e-05)
(2.123014513e-05 2.327782064e-15 4.874867455e-05)
(2.082983127e-05 2.318891607e-15 4.874845811e-05)
(2.029110134e-05 2.306748542e-15 4.874816682e-05)
(1.963465115e-05 2.292003393e-15 4.874781188e-05)
(1.88857142e-05 2.27552352e-15 4.874740694e-05)
(1.807307727e-05 2.257742604e-15 4.874696756e-05)
(1.722795952e-05 2.238660646e-15 4.874651061e-05)
(1.638284176e-05 2.219578688e-15 4.874605366e-05)
(1.557020483e-05 2.201797772e-15 4.874561428e-05)
(1.482126788e-05 2.185317899e-15 4.874520934e-05)
(1.416481769e-05 2.170572749e-15 4.87448544e-05)
(1.362608776e-05 2.158429685e-15 4.874456311e-05)
(1.32257739e-05 2.149972908e-15 4.874434667e-05)
(1.297926529e-05 2.144335057e-15 4.874421338e-05)
(1.289602721e-05 2.142600069e-15 4.874416838e-05)
(1.297926529e-05 2.144335057e-15 4.874421338e-05)
(1.32257739e-05 2.149972908e-15 4.874434667e-05)
(1.362608776e-05 2.158429685e-15 4.874456311e-05)
(1.416481769e-05 2.170572749e-15 4.87448544e-05)
(1.482126788e-05 2.185317899e-15 4.874520934e-05)
(1.557020483e-05 2.201797772e-15 4.874561428e-05)
(1.638284176e-05 2.219578688e-15 4.874605366e-05)
(1.722795952e-05 2.238660646e-15 4.874651061e-05)
(1.807307727e-05 2.257742604e-15 4.874696756e-05)
(1.88857142e-05 2.27552352e-15 4.874740694e-05)
(1.963465115e-05 2.292003393e-15 4.874781188e-05)
(2.029110134e-05 2.306748542e-15 4.874816682e-05)
(2.082983127e-05 2.318891607e-15 4.874845811e-05)
(2.123014513e-05 2.327782064e-15 4.874867455e-05)
(2.147665374e-05 2.333203075e-15 4.874880784e-05)
(3.837207791e-05 3.413267939e-15 9.44025953e-05)
(3.829689127e-05 3.411333716e-15 9.440255858e-05)
(3.807422691e-05 3.405912705e-15 9.440244986e-05)
(3.771263455e-05 3.397022247e-15 9.440227329e-05)
(3.72260148e-05 3.385312863e-15 9.440203568e-05)
(3.663306162e-05 3.370567714e-15 9.440174614e-05)
(3.595656773e-05 3.354087841e-15 9.440141582e-05)
(3.522253542e-05 3.335873244e-15 9.440105739e-05)
(3.445916409e-05 3.316791286e-15 9.440068464e-05)
(3.369579275e-05 3.297709328e-15 9.440031189e-05)
(3.296176044e-05 3.280362093e-15 9.439995347e-05)
(3.228526655e-05 3.26388222e-15 9.439962314e-05)
(3.169231337e-05 3.249137071e-15 9.439933361e-05)
(3.120569363e-05 3.237427687e-15 9.439909599e-05)
(3.084410126e-05 3.228103548e-15 9.439891943e-05)
(3.06214369e-05 3.222682537e-15 9.439881071e-05)
(3.054625026e-05 3.220812016e-15 9.439877399e-05)
(3.06214369e-05 3.222682537e-15 9.439881071e-05)
(3.084410126e-05 3.228103548e-15 9.439891943e-05)
(3.120569363e-05 3.237427687e-15 9.439909599e-05)
(3.169231337e-05 3.249137071e-15 9.439933361e-05)
(3.228526655e-05 3.26388222e-15 9.439962314e-05)
(3.296176044e-05 3.280362093e-15 9.439995347e-05)
(3.369579275e-05 3.297709328e-15 9.440031189e-05)
(3.445916409e-05 3.316791286e-15 9.440068464e-05)
(3.522253542e-05 3.335873244e-15 9.440105739e-05)
(3.595656773e-05 3.354087841e-15 9.440141582e-05)
(3.663306162e-05 3.370567714e-15 9.440174614e-05)
(3.72260148e-05 3.385312863e-15 9.440203568e-05)
(3.771263455e-05 3.397022247e-15 9.440227329e-05)
(3.807422691e-05 3.405912705e-15 9.440244986e-05)
(3.829689127e-05 3.411333716e-15 9.440255858e-05)
(5.49092787e-05 4.17286934e-15 0.0001338615228)
(5.484753971e-05 4.170925758e-15 0.0001338614981)
(5.466470044e-05 4.165721587e-15 0.0001338614248)
(5.43677814e-05 4.156397448e-15 0.0001338613058)
(5.396819702e-05 4.144688065e-15 0.0001338611457)
(5.348129768e-05 4.129942915e-15 0.0001338609506)
(5.292579947e-05 4.113463042e-15 0.000133860728)
(5.232305399e-05 4.095682127e-15 0.0001338604865)
(5.169621698e-05 4.076600169e-15 0.0001338602353)
(5.106937996e-05 4.05751821e-15 0.0001338599842)
(5.046663449e-05 4.039737295e-15 0.0001338597426)
(4.991113628e-05 4.023257422e-15 0.0001338595201)
(4.942423694e-05 4.008512272e-15 0.000133859325)
(4.902465255e-05 3.996802889e-15 0.0001338591648)
(4.872773352e-05 3.987912431e-15 0.0001338590459)
(4.854489424e-05 3.98227458e-15 0.0001338589726)
(4.848315526e-05 3.980436394e-15 0.0001338589479)
(4.854489424e-05 3.98227458e-15 0.0001338589726)
(4.872773352e-05 3.987912431e-15 0.0001338590459)
(4.902465255e-05 3.996802889e-15 0.0001338591648)
(4.942423694e-05 4.008512272e-15 0.000133859325)
(4.991113628e-05 4.023257422e-15 0.0001338595201)
(5.046663449e-05 4.039737295e-15 0.0001338597426)
(5.106937996e-05 4.05751821e-15 0.0001338599842)
(5.169621698e-05 4.076600169e-15 0.0001338602353)
(5.232305399e-05 4.095682127e-15 0.0001338604865)
(5.292579947e-05 4.113463042e-15 0.000133860728)
(5.348129768e-05 4.129942915e-15 0.0001338609506)
(5.396819702e-05 4.144688065e-15 0.0001338611457)
(5.43677814e-05 4.156397448e-15 0.0001338613058)
(5.466470044e-05 4.165721587e-15 0.0001338614248)
(5.484753971e-05 4.170925758e-15 0.0001338614981)
(7.117077031e-05 4.461406306e-15 0.0001640048287)
(7.112791435e-05 4.459540376e-15 0.0001640048169)
(7.10009969e-05 4.454119365e-15 0.0001640047816)
(7.079489128e-05 4.445228907e-15 0.0001640047244)
(7.051752074e-05 4.433519524e-15 0.0001640046474)
(7.017954074e-05 4.418774374e-15 0.0001640045536)
(6.9793943e-05 4.402294501e-15 0.0001640044466)
(6.937554869e-05 4.383646224e-15 0.0001640043305)
(6.894043129e-05 4.364564266e-15 0.0001640042097)
(6.850531389e-05 4.345482307e-15 0.000164004089)
(6.808691958e-05 4.328568753e-15 0.0001640039728)
(6.770132184e-05 4.31208888e-15 0.0001640038658)
(6.736334184e-05 4.297343731e-15 0.000164003772)
(6.70859713e-05 4.285634347e-15 0.000164003695)
(6.687986567e-05 4.276310209e-15 0.0001640036378)
(6.675294823e-05 4.270889198e-15 0.0001640036026)
(6.671009227e-05 4.268984626e-15 0.0001640035907)
(6.675294823e-05 4.270889198e-15 0.0001640036026)
(6.687986567e-05 4.276310209e-15 0.0001640036378)
(6.70859713e-05 4.285634347e-15 0.000164003695)
(6.736334184e-05 4.297343731e-15 0.000164003772)
(6.770132184e-05 4.31208888e-15 0.0001640038658)
(6.808691958e-05 4.328568753e-15 0.0001640039728)
(6.850531389e-05 4.345482307e-15 0.000164004089)
(6.894043129e-05 4.364564266e-15 0.0001640042097)
(6.937554869e-05 4.383646224e-15 0.0001640043305)
(6.9793943e-05 4.402294501e-15 0.0001640044466)
(7.017954074e-05 4.418774374e-15 0.0001640045536)
(7.051752074e-05 4.433519524e-15 0.0001640046474)
(7.079489128e-05 4.445228907e-15 0.0001640047244)
(7.10009969e-05 4.454119365e-15 0.0001640047816)
(7.112791435e-05 4.459540376e-15 0.0001640048169)
(8.71534342e-05 4.134853016e-15 0.0001816867998)
(8.71349441e-05 4.132978682e-15 0.0001816867976)
(8.708018588e-05 4.12734083e-15 0.0001816867911)
(8.699126211e-05 4.118667213e-15 0.0001816867807)
(8.687159128e-05 4.106957829e-15 0.0001816867666)
(8.672577065e-05 4.09221268e-15 0.0001816867495)
(8.655940545e-05 4.075732807e-15 0.0001816867299)
(8.637889026e-05 4.05751821e-15 0.0001816867087)
(8.619115994e-05 4.038436252e-15 0.0001816866866)
(8.600342961e-05 4.019354294e-15 0.0001816866645)
(8.582291442e-05 4.002007059e-15 0.0001816866433)
(8.565654922e-05 3.985527186e-15 0.0001816866237)
(8.551072859e-05 3.970782037e-15 0.0001816866065)
(8.539105776e-05 3.959072653e-15 0.0001816865925)
(8.530213399e-05 3.949531674e-15 0.000181686582)
(8.524737577e-05 3.944327504e-15 0.0001816865756)
(8.522888567e-05 3.942410567e-15 0.0001816865734)
(8.524737577e-05 3.944327504e-15 0.0001816865756)
(8.530213399e-05 3.949531674e-15 0.000181686582)
(8.539105776e-05 3.959072653e-15 0.0001816865925)
(8.551072859e-05 3.970782037e-15 0.0001816866065)
(8.565654922e-05 3.985527186e-15 0.0001816866237)
(8.582291442e-05 4.002007059e-15 0.0001816866433)
(8.600342961e-05 4.019354294e-15 0.0001816866645)
(8.619115994e-05 4.038436252e-15 0.0001816866866)
(8.637889026e-05 4.05751821e-15 0.0001816867087)
(8.655940545e-05 4.075732807e-15 0.0001816867299)
(8.672577065e-05 4.09221268e-15 0.0001816867495)
(8.687159128e-05 4.106957829e-15 0.0001816867666)
(8.699126211e-05 4.118667213e-15 0.0001816867807)
(8.708018588e-05 4.12734083e-15 0.0001816867911)
(8.71349441e-05 4.132978682e-15 0.0001816867976)
(0.0001028514205 3.060854237e-15 0.0001837339882)
(0.000102862828 3.05907643e-15 0.0001837339874)
(0.0001028966114 3.053546999e-15 0.000183733985)
(0.0001029514734 3.044873381e-15 0.0001837339812)
(0.000103025305 3.032730317e-15 0.000183733976)
(0.0001031152698 3.017985167e-15 0.0001837339697)
(0.0001032179097 3.001505294e-15 0.0001837339624)
(0.0001033292795 2.983724379e-15 0.0001837339546)
(0.0001034451008 2.96464242e-15 0.0001837339465)
(0.000103560922 2.945560462e-15 0.0001837339384)
(0.0001036722919 2.927779547e-15 0.0001837339305)
(0.0001037749318 2.911299674e-15 0.0001837339233)
(0.0001038648966 2.896554524e-15 0.000183733917)
(0.0001039387282 2.88441146e-15 0.0001837339118)
(0.0001039935902 2.875737842e-15 0.000183733908)
(0.0001040273735 2.870208411e-15 0.0001837339056)
(0.0001040387811 2.868333427e-15 0.0001837339048)
(0.0001040273735 2.870208411e-15 0.0001837339056)
(0.0001039935902 2.875737842e-15 0.000183733908)
(0.0001039387282 2.88441146e-15 0.0001837339118)
(0.0001038648966 2.896554524e-15 0.000183733917)
(0.0001037749318 2.911299674e-15 0.0001837339233)
(0.0001036722919 2.927779547e-15 0.0001837339305)
(0.000103560922 2.945560462e-15 0.0001837339384)
(0.0001034451008 2.96464242e-15 0.0001837339465)
(0.0001033292795 2.983724379e-15 0.0001837339546)
(0.0001032179097 3.001505294e-15 0.0001837339624)
(0.0001031152698 3.017985167e-15 0.0001837339697)
(0.000103025305 3.032730317e-15 0.000183733976)
(0.0001029514734 3.044873381e-15 0.0001837339812)
(0.0001028966114 3.053546999e-15 0.000183733985)
(0.000102862828 3.05907643e-15 0.0001837339874)
(0.0001182558641 1.122240338e-15 0.0001669467617)
(0.0001183027433 1.120414525e-15 0.0001669467475)
(0.0001184415753 1.114776674e-15 0.0001669467053)
(0.0001186670295 1.106319897e-15 0.0001669466367)
(0.0001189704387 1.094176832e-15 0.0001669465445)
(0.0001193401473 1.079431683e-15 0.000166946432)
(0.0001197619437 1.06295181e-15 0.0001669463038)
(0.0001202196156 1.045170894e-15 0.0001669461646)
(0.0001206955805 1.026088936e-15 0.0001669460199)
(0.0001211715453 1.007006978e-15 0.0001669458752)
(0.0001216292172 9.892260622e-16 0.000166945736)
(0.0001220510137 9.727461892e-16 0.0001669456077)
(0.0001224207222 9.580010396e-16 0.0001669454953)
(0.0001227241314 9.458579753e-16 0.0001669454031)
(0.0001229495856 9.369675175e-16 0.0001669453345)
(0.0001230884177 9.313296662e-16 0.0001669452923)
(0.0001231352968 9.295541828e-16 0.000166945278)
(0.0001230884177 9.313296662e-16 0.0001669452923)
(0.0001229495856 9.369675175e-16 0.0001669453345)
(0.0001227241314 9.458579753e-16 0.0001669454031)
(0.0001224207222 9.580010396e-16 0.0001669454953)
(0.0001220510137 9.727461892e-16 0.0001669456077)
(0.0001216292172 9.892260622e-16 0.000166945736)
(0.0001211715453 1.007006978e-15 0.0001669458752)
(0.0001206955805 1.026088936e-15 0.0001669460199)
(0.0001202196156 1.045170894e-15 0.0001669461646)
(0.0001197619437 1.06295181e-15 0.0001669463038)
(0.0001193401473 1.079431683e-15 0.000166946432)
(0.0001189704388 1.094176832e-15 0.0001669465445)
(0.0001186670295 1.106319897e-15 0.0001669466367)
(0.0001184415753 1.114776674e-15 0.0001669467053)
(0.0001183027433 1.120414525e-15 0.0001669467475)
(0.0001333546433 -1.779160932e-15 0.0001281059363)
(0.0001334425939 -1.780910489e-15 0.000128105886)
(0.0001337030585 -1.78654834e-15 0.0001281057371)
(0.0001341260361 -1.795438798e-15 0.0001281054952)
(0.000134695266 -1.807581862e-15 0.0001281051698)
(0.000135388881 -1.821893331e-15 0.0001281047733)
(0.0001361802188 -1.838806885e-15 0.0001281043208)
(0.0001370388629 -1.856154119e-15 0.0001281038299)
(0.0001379318268 -1.875236078e-15 0.0001281033194)
(0.0001388247906 -1.894318036e-15 0.0001281028089)
(0.0001396834348 -1.912532632e-15 0.000128102318)
(0.0001404747726 -1.929446186e-15 0.0001281018656)
(0.0001411683875 -1.943757655e-15 0.000128101469)
(0.0001417376175 -1.955900719e-15 0.0001281011436)
(0.000142160595 -1.964791177e-15 0.0001281009018)
(0.0001424210597 -1.970212188e-15 0.0001281007529)
(0.0001425090102 -1.972132086e-15 0.0001281007026)
(0.0001424210597 -1.970212188e-15 0.0001281007529)
(0.000142160595 -1.964791177e-15 0.0001281009018)
(0.0001417376175 -1.955900719e-15 0.0001281011436)
(0.0001411683875 -1.943757655e-15 0.000128101469)
(0.0001404747726 -1.929446186e-15 0.0001281018656)
(0.0001396834348 -1.912532632e-15 0.000128102318)
(0.0001388247906 -1.894318036e-15 0.0001281028089)
(0.0001379318268 -1.875236078e-15 0.0001281033194)
(0.0001370388629 -1.856154119e-15 0.0001281038299)
(0.0001361802188 -1.838806885e-15 0.0001281043208)
(0.000135388881 -1.821893331e-15 0.0001281047733)
(0.000134695266 -1.807581862e-15 0.0001281051698)
(0.0001341260361 -1.795438798e-15 0.0001281054952)
(0.0001337030585 -1.78654834e-15 0.0001281057371)
(0.0001334425939 -1.780910489e-15 0.000128105886)
(0.0001481321706 -5.71840801e-15 6.39849228e-05)
(0.0001482667924 -5.720142242e-15 6.398480494e-05)
(0.0001486654734 -5.725888513e-15 6.398445589e-05)
(0.0001493129051 -5.734562131e-15 6.398388906e-05)
(0.0001501841986 -5.746271514e-15 6.398312624e-05)
(0.0001512458823 -5.761016664e-15 6.398219674e-05)
(0.0001524571457 -5.777930218e-15 6.398113627e-05)
(0.0001537714318 -5.795711133e-15 6.397998561e-05)
(0.0001551382495 -5.814793091e-15 6.397878896e-05)
(0.0001565050672 -5.83387505e-15 6.397759231e-05)
(0.0001578193533 -5.851655965e-15 6.397644165e-05)
(0.0001590306168 -5.868569519e-15 6.397538119e-05)
(0.0001600923005 -5.883314669e-15 6.397445168e-05)
(0.0001609635939 -5.895024052e-15 6.397368886e-05)
(0.0001616110257 -5.904565031e-15 6.397312203e-05)
(0.0001620097066 -5.909877622e-15 6.397277299e-05)
(0.0001621443284 -5.911817481e-15 6.397265513e-05)
(0.0001620097066 -5.909877622e-15 6.397277299e-05)
(0.0001616110257 -5.904565031e-15 6.397312203e-05)
(0.0001609635939 -5.895024052e-15 6.397368886e-05)
(0.0001600923005 -5.883314669e-15 6.397445168e-05)
(0.0001590306168 -5.868569519e-15 6.397538119e-05)
(0.0001578193533 -5.851655965e-15 6.397644165e-05)
(0.0001565050672 -5.83387505e-15 6.397759231e-05)
(0.0001551382495 -5.814793091e-15 6.397878896e-05)
(0.0001537714318 -5.795711133e-15 6.397998561e-05)
(0.0001524571457 -5.777930218e-15 6.398113627e-05)
(0.0001512458823 -5.761016664e-15 6.398219674e-05)
(0.0001501841986 -5.746271514e-15 6.398312624e-05)
(0.0001493129051 -5.734562131e-15 6.398388906e-05)
(0.0001486654734 -5.725888513e-15 6.398445589e-05)
(0.0001482667924 -5.720142242e-15 6.398480494e-05)
(0.0001625692255 -1.074316433e-14 -2.86324536e-05)
(0.0001627560824 -1.074498563e-14 -2.86326807e-05)
(0.000163309457 -1.07507319e-14 -2.863335328e-05)
(0.0001642081011 -1.075962236e-14 -2.863444549e-05)
(0.0001654174683 -1.077176542e-14 -2.863591535e-05)
(0.0001668910997 -1.078651057e-14 -2.86377064e-05)
(0.0001685723499 -1.080299045e-14 -2.863974979e-05)
(0.000170396597 -1.082120504e-14 -2.864196698e-05)
(0.0001722937586 -1.0840287e-14 -2.864427279e-05)
(0.0001741909202 -1.085936896e-14 -2.86465786e-05)
(0.0001760151672 -1.087758356e-14 -2.864879579e-05)
(0.0001776964174 -1.089406343e-14 -2.865083918e-05)
(0.0001791700488 -1.090880858e-14 -2.865263023e-05)
(0.0001803794161 -1.092095164e-14 -2.865410009e-05)
(0.0001812780602 -1.09298421e-14 -2.865519231e-05)
(0.0001818314347 -1.093537153e-14 -2.865586488e-05)
(0.0001820182916 -1.093719863e-14 -2.865609198e-05)
(0.0001818314347 -1.093537153e-14 -2.865586488e-05)
(0.0001812780602 -1.09298421e-14 -2.865519231e-05)
(0.0001803794161 -1.092095164e-14 -2.865410009e-05)
(0.0001791700488 -1.090880858e-14 -2.865263023e-05)
(0.0001776964174 -1.089406343e-14 -2.865083918e-05)
(0.0001760151672 -1.087758356e-14 -2.864879579e-05)
(0.0001741909202 -1.085936896e-14 -2.86465786e-05)
(0.0001722937586 -1.0840287e-14 -2.864427279e-05)
(0.000170396597 -1.082120504e-14 -2.864196698e-05)
(0.0001685723499 -1.080299045e-14 -2.863974979e-05)
(0.0001668910997 -1.078651057e-14 -2.86377064e-05)
(0.0001654174683 -1.077176542e-14 -2.863591535e-05)
(0.0001642081011 -1.075962236e-14 -2.863444549e-05)
(0.000163309457 -1.07507319e-14 -2.863335328e-05)
(0.0001627560824 -1.074498563e-14 -2.86326807e-05)
(0.0001766428347 -1.686933878e-14 -0.0001529285878)
(0.0001768874094 -1.687127001e-14 -0.0001529289769)
(0.0001776117146 -1.687690786e-14 -0.0001529301292)
(0.0001787879387 -1.688579832e-14 -0.0001529320005)
(0.0001803708646 -1.689794138e-14 -0.0001529345188)
(0.0001822996826 -1.691268653e-14 -0.0001529375874)
(0.0001845002503 -1.692960008e-14 -0.0001529410884)
(0.0001868879848 -1.6947381e-14 -0.0001529448871)
(0.0001893711562 -1.696646296e-14 -0.0001529488376)
(0.0001918543276 -1.698554492e-14 -0.0001529527882)
(0.0001942420621 -1.700419319e-14 -0.0001529565869)
(0.0001964426298 -1.702110675e-14 -0.0001529600878)
(0.0001983714478 -1.70358519e-14 -0.0001529631564)
(0.0001999543737 -1.704799496e-14 -0.0001529656747)
(0.0002011305979 -1.705688542e-14 -0.000152967546)
(0.000201854903 -1.706230643e-14 -0.0001529686983)
(0.0002020994777 -1.706421406e-14 -0.0001529690874)
(0.000201854903 -1.706230643e-14 -0.0001529686983)
(0.0002011305979 -1.705688542e-14 -0.000152967546)
(0.0001999543737 -1.704799496e-14 -0.0001529656747)
(0.0001983714478 -1.70358519e-14 -0.0001529631564)
(0.0001964426298 -1.702110675e-14 -0.0001529600878)
(0.0001942420621 -1.700419319e-14 -0.0001529565869)
(0.0001918543276 -1.698554492e-14 -0.0001529527882)
(0.0001893711562 -1.696646296e-14 -0.0001529488376)
(0.0001868879848 -1.6947381e-14 -0.0001529448871)
(0.0001845002503 -1.692960008e-14 -0.0001529410884)
(0.0001822996826 -1.691268653e-14 -0.0001529375874)
(0.0001803708646 -1.689794138e-14 -0.0001529345188)
(0.0001787879387 -1.688579832e-14 -0.0001529320005)
(0.0001776117146 -1.687690786e-14 -0.0001529301292)
(0.0001768874094 -1.687127001e-14 -0.0001529289769)
(0.000190326213 -2.407674947e-14 -0.0003120236477)
(0.0001906338535 -2.407861237e-14 -0.0003120242633)
(0.0001915449272 -2.408446706e-14 -0.0003120260866)
(0.0001930244515 -2.409314068e-14 -0.0003120290475)
(0.0001950155491 -2.410528374e-14 -0.0003120330321)
(0.0001974417304 -2.412002889e-14 -0.0003120378875)
(0.0002002097344 -2.413737613e-14 -0.0003120434269)
(0.0002032131678 -2.415515704e-14 -0.0003120494374)
(0.0002063366475 -2.4174239e-14 -0.0003120556882)
(0.0002094601271 -2.419332096e-14 -0.000312061939)
(0.0002124635606 -2.421196924e-14 -0.0003120679496)
(0.0002152315646 -2.422931647e-14 -0.000312073489)
(0.0002176577458 -2.424406162e-14 -0.0003120783443)
(0.0002196488435 -2.425620468e-14 -0.000312082329)
(0.0002211283677 -2.426531198e-14 -0.0003120852898)
(0.0002220394415 -2.427073299e-14 -0.0003120871131)
(0.000222347082 -2.427270531e-14 -0.0003120877288)
(0.0002220394415 -2.427073299e-14 -0.0003120871131)
(0.0002211283677 -2.426531198e-14 -0.0003120852898)
(0.0002196488435 -2.425620468e-14 -0.000312082329)
(0.0002176577458 -2.424406162e-14 -0.0003120783443)
(0.0002152315646 -2.422931647e-14 -0.000312073489)
(0.0002124635606 -2.421196924e-14 -0.0003120679496)
(0.0002094601271 -2.419332096e-14 -0.000312061939)
(0.0002063366475 -2.4174239e-14 -0.0003120556882)
(0.0002032131678 -2.415515704e-14 -0.0003120494374)
(0.0002002097344 -2.413737613e-14 -0.0003120434269)
(0.0001974417304 -2.412002889e-14 -0.0003120378875)
(0.0001950155491 -2.410528374e-14 -0.0003120330321)
(0.0001930244515 -2.409314068e-14 -0.0003120290475)
(0.0001915449272 -2.408446706e-14 -0.0003120260866)
(0.0001906338535 -2.407861237e-14 -0.0003120242633)
(0.00020358879 -3.230510992e-14 -0.0005089428016)
(0.0002039646493 -3.230705634e-14 -0.0005089437206)
(0.0002050777524 -3.231269419e-14 -0.0005089464421)
(0.0002068853591 -3.232180149e-14 -0.0005089508618)
(0.0002093179798 -3.233394455e-14 -0.0005089568097)
(0.0002122821633 -3.234912338e-14 -0.0005089640573)
(0.0002156639682 -3.236603693e-14 -0.0005089723259)
(0.0002193334088 -3.238468521e-14 -0.0005089812979)
(0.0002231495156 -3.240376717e-14 -0.0005089906284)
(0.0002269656225 -3.242284913e-14 -0.000508999959)
(0.000230635063 -3.244149741e-14 -0.0005090089309)
(0.000234016868 -3.245841096e-14 -0.0005090171996)
(0.0002369810514 -3.247358979e-14 -0.0005090244471)
(0.0002394136721 -3.248573285e-14 -0.000509030395)
(0.0002412212788 -3.249484015e-14 -0.0005090348147)
(0.0002423343819 -3.2500478e-14 -0.0005090375363)
(0.0002427102412 -3.250240001e-14 -0.0005090384553)
(0.0002423343819 -3.2500478e-14 -0.0005090375363)
(0.0002412212788 -3.249484015e-14 -0.0005090348147)
(0.0002394136721 -3.248573285e-14 -0.000509030395)
(0.0002369810514 -3.247358979e-14 -0.0005090244471)
(0.000234016868 -3.245841096e-14 -0.0005090171996)
(0.000230635063 -3.244149741e-14 -0.0005090089309)
(0.0002269656225 -3.242284913e-14 -0.000508999959)
(0.0002231495156 -3.240376717e-14 -0.0005089906284)
(0.0002193334088 -3.238468521e-14 -0.0005089812979)
(0.0002156639682 -3.236603693e-14 -0.0005089723259)
(0.0002122821633 -3.234912338e-14 -0.0005089640573)
(0.0002093179798 -3.233394455e-14 -0.0005089568097)
(0.0002068853591 -3.232180149e-14 -0.0005089508618)
(0.0002050777524 -3.231269419e-14 -0.0005089464421)
(0.0002039646494 -3.230705634e-14 -0.0005089437206)
(0.0002163963366 -4.145058793e-14 -0.0007465801799)
(0.000216845308 -4.145241008e-14 -0.0007465814912)
(0.0002181749316 -4.145793951e-14 -0.0007465853746)
(0.0002203341534 -4.146726365e-14 -0.000746591681)
(0.0002232399669 -4.14798404e-14 -0.000746600168)
(0.0002267807425 -4.149501923e-14 -0.0007466105095)
(0.0002308203753 -4.151193278e-14 -0.000746622308)
(0.0002352035944 -4.153101474e-14 -0.00074663511)
(0.0002397620093 -4.15500967e-14 -0.0007466484238)
(0.0002443204242 -4.156917865e-14 -0.0007466617375)
(0.0002487036433 -4.158826061e-14 -0.0007466745395)
(0.000252743276 -4.160517417e-14 -0.000746686338)
(0.0002562840517 -4.1620353e-14 -0.0007466966795)
(0.0002591898651 -4.163292974e-14 -0.0007467051665)
(0.0002613490869 -4.16418202e-14 -0.0007467114729)
(0.0002626787106 -4.164756647e-14 -0.0007467153563)
(0.000263127682 -4.164946757e-14 -0.0007467166676)
(0.0002626787106 -4.164756647e-14 -0.0007467153563)
(0.0002613490869 -4.16418202e-14 -0.0007467114729)
(0.0002591898651 -4.163292974e-14 -0.0007467051665)
(0.0002562840517 -4.1620353e-14 -0.0007466966795)
(0.0002527432761 -4.160517417e-14 -0.000746686338)
(0.0002487036433 -4.158826061e-14 -0.0007466745395)
(0.0002443204242 -4.156917865e-14 -0.0007466617375)
(0.0002397620093 -4.15500967e-14 -0.0007466484238)
(0.0002352035944 -4.153101474e-14 -0.00074663511)
(0.0002308203753 -4.151193278e-14 -0.000746622308)
(0.0002267807425 -4.149501923e-14 -0.0007466105095)
(0.0002232399669 -4.14798404e-14 -0.000746600168)
(0.0002203341534 -4.146726365e-14 -0.000746591681)
(0.0002181749316 -4.145793951e-14 -0.0007465853746)
(0.000216845308 -4.145241008e-14 -0.0007465814912)
(0.0002287112203 -5.136317215e-14 -0.001027660878)
(0.00022923787 -5.13650537e-14 -0.001027662683)
(0.0002307975372 -5.137079997e-14 -0.001027668026)
(0.0002333303347 -5.138034095e-14 -0.001027676704)
(0.0002367388947 -5.139248402e-14 -0.001027688382)
(0.0002408922743 -5.140766285e-14 -0.001027702611)
(0.0002456308202 -5.142501008e-14 -0.001027718846)
(0.0002507723978 -5.144409204e-14 -0.001027736461)
(0.0002561194826 -5.146404136e-14 -0.00102775478)
(0.0002614665673 -5.148399068e-14 -0.0010277731)
(0.0002666081449 -5.150220528e-14 -0.001027790715)
(0.0002713466909 -5.151955251e-14 -0.001027806949)
(0.0002755000704 -5.153473134e-14 -0.001027821179)
(0.0002789086304 -5.154687441e-14 -0.001027832857)
(0.0002814414279 -5.155641539e-14 -0.001027841534)
(0.0002830010951 -5.156194482e-14 -0.001027846878)
(0.0002835277449 -5.156388288e-14 -0.001027848682)
(0.0002830010951 -5.156194482e-14 -0.001027846878)
(0.0002814414279 -5.155641539e-14 -0.001027841534)
(0.0002789086304 -5.154687441e-14 -0.001027832857)
(0.0002755000704 -5.153473134e-14 -0.001027821179)
(0.0002713466909 -5.151955251e-14 -0.001027806949)
(0.0002666081449 -5.150220528e-14 -0.001027790715)
(0.0002614665673 -5.148399068e-14 -0.0010277731)
(0.0002561194826 -5.146404136e-14 -0.00102775478)
(0.0002507723978 -5.144409204e-14 -0.001027736461)
(0.0002456308202 -5.142501008e-14 -0.001027718846)
(0.0002408922743 -5.140766285e-14 -0.001027702611)
(0.0002367388947 -5.139248402e-14 -0.001027688382)
(0.0002333303347 -5.138034095e-14 -0.001027676704)
(0.0002307975372 -5.137079997e-14 -0.001027668026)
(0.00022923787 -5.13650537e-14 -0.001027662683)
(0.0002404927935 -6.184513873e-14 -0.00135470252)
(0.0002411012946 -6.184712031e-14 -0.001354704928)
(0.0002429033636 -6.185286658e-14 -0.001354712062)
(0.0002458298058 -6.186240756e-14 -0.001354723646)
(0.0002497681206 -6.18749843e-14 -0.001354739236)
(0.000254567014 -6.189016313e-14 -0.001354758233)
(0.0002600420198 -6.190794405e-14 -0.001354779906)
(0.0002659826959 -6.192702601e-14 -0.001354803422)
(0.0002721608189 -6.194697533e-14 -0.001354827879)
(0.0002783389419 -6.196692465e-14 -0.001354852335)
(0.0002842796181 -6.198513924e-14 -0.001354875851)
(0.0002897546238 -6.200292016e-14 -0.001354897524)
(0.0002945535173 -6.201809899e-14 -0.001354916521)
(0.0002984918321 -6.203067573e-14 -0.001354932111)
(0.0003014182743 -6.204021671e-14 -0.001354943695)
(0.0003032203433 -6.204596299e-14 -0.001354950829)
(0.0003038288444 -6.204789109e-14 -0.001354953238)
(0.0003032203433 -6.204596299e-14 -0.001354950829)
(0.0003014182743 -6.204021671e-14 -0.001354943695)
(0.0002984918321 -6.203067573e-14 -0.001354932111)
(0.0002945535173 -6.201809899e-14 -0.001354916521)
(0.0002897546238 -6.200292016e-14 -0.001354897524)
(0.0002842796181 -6.198513924e-14 -0.001354875851)
(0.000278338942 -6.196692465e-14 -0.001354852335)
(0.0002721608189 -6.194697533e-14 -0.001354827879)
(0.0002659826959 -6.192702601e-14 -0.001354803422)
(0.0002600420198 -6.190794405e-14 -0.001354779906)
(0.000254567014 -6.189016313e-14 -0.001354758233)
(0.0002497681206 -6.18749843e-14 -0.001354739236)
(0.0002458298058 -6.186240756e-14 -0.001354723646)
(0.0002429033636 -6.185286658e-14 -0.001354712062)
(0.0002411012946 -6.184712031e-14 -0.001354704928)
(0.0002516979292 -7.265094615e-14 -0.00172997805)
(0.0002523919985 -7.265292968e-14 -0.001729981184)
(0.0002544474768 -7.265867595e-14 -0.001729990465)
(0.0002577854392 -7.266843377e-14 -0.001730005537)
(0.0002622775651 -7.268101052e-14 -0.00173002582)
(0.0002677512852 -7.269662303e-14 -0.001730050535)
(0.0002739961935 -7.271440394e-14 -0.001730078732)
(0.0002807722554 -7.27334859e-14 -0.001730109327)
(0.0002878191543 -7.275343522e-14 -0.001730141146)
(0.0002948660531 -7.277338454e-14 -0.001730172964)
(0.000301642115 -7.27924665e-14 -0.00173020356)
(0.0003078870233 -7.281024741e-14 -0.001730231757)
(0.0003133607435 -7.282585993e-14 -0.001730256472)
(0.0003178528694 -7.283843667e-14 -0.001730276755)
(0.0003211908318 -7.284819449e-14 -0.001730291826)
(0.0003232463101 -7.285394076e-14 -0.001730301107)
(0.0003239403794 -7.285590076e-14 -0.001730304241)
(0.0003232463101 -7.285394076e-14 -0.001730301107)
(0.0003211908318 -7.284819449e-14 -0.001730291826)
(0.0003178528694 -7.283843667e-14 -0.001730276755)
(0.0003133607435 -7.282585993e-14 -0.001730256472)
(0.0003078870233 -7.281024741e-14 -0.001730231757)
(0.000301642115 -7.27924665e-14 -0.00173020356)
(0.0002948660531 -7.277338454e-14 -0.001730172964)
(0.0002878191543 -7.275343522e-14 -0.001730141146)
(0.0002807722554 -7.27334859e-14 -0.001730109327)
(0.0002739961936 -7.271440394e-14 -0.001730078732)
(0.0002677512852 -7.269662303e-14 -0.001730050535)
(0.0002622775651 -7.268101052e-14 -0.00173002582)
(0.0002577854392 -7.266843377e-14 -0.001730005537)
(0.0002544474768 -7.265867595e-14 -0.001729990465)
(0.0002523919985 -7.265292968e-14 -0.001729981184)