/*--------------------------------*- C++ -*----------------------------------*\
| =========                 |                                                 |
| \\      /  F ield         | OpenFOAM: The Open Source CFD Toolbox           |
|  \\    /   O peration     | Version:  2312                                  |
|   \\  /    A nd           | Website:  www.openfoam.com                      |
|    \\/     M anipulation  |                                                 |
\*---------------------------------------------------------------------------*/
FoamFile
{
    version     2.0;
    format      ascii;
    arch        "LSB;label=32;scalar=64";
    class       surfaceVectorField;
    location    "0.12/beam";
    object      Q;
}
// * * * * * * * * * * * * * * * * * * * * * * * * * * * * * * * * * * * * * //

dimensions      [1 1 -2 0 0 0 0];

oriented        oriented;

internalField   nonuniform List<vector> 
59
(
(0.05876808256 2.705314961e-15 8.512028102e-05)
(0.05876809714 2.358205228e-15 7.906978602e-05)
(0.05876812098 1.784515815e-15 6.894936575e-05)
(0.05876815335 9.918191263e-16 5.470817207e-05)
(0.05876819307 -8.6436242e-18 3.628195446e-05)
(0.05876823841 -1.201380567e-15 1.359964359e-05)
(0.05876828698 -2.56598164e-15 -1.340868135e-05)
(0.0587683356 -4.076422772e-15 -4.480280046e-05)
(0.05876838019 -5.700410753e-15 -8.062275684e-05)
(0.0587684157 -7.398844272e-15 -0.0001208791263)
(0.05876843608 -9.12547249e-15 -0.0001655436559)
(0.05876843438 -1.082683407e-14 -0.000214540787)
(0.05876840283 -1.244255675e-14 -0.0002677405674)
(0.05876833313 -1.390609079e-14 -0.000324953425)
(0.05876821671 -1.51459357e-14 -0.0003859272101)
(0.05876804511 -1.608739935e-14 -0.000450346836)
(0.05876781048 -1.665490123e-14 -0.0005178367372)
(0.05876750596 -1.677479561e-14 -0.0005879662474)
(0.05876712624 -1.637864737e-14 -0.000660257871)
(0.05876666785 -1.540684221e-14 -0.0007341982889)
(0.05876612959 -1.381235674e-14 -0.0008092518135)
(0.05876551263 -1.156445419e-14 -0.0008848758923)
(0.05876482065 -8.652378086e-15 -0.0009605296025)
(0.05876405928 -5.086131822e-15 -0.001035734363)
(0.05876323664 -9.021617109e-16 -0.001109998363)
(0.05876236154 3.842863133e-15 -0.001182961368)
(0.05876144423 9.066447718e-15 -0.001254276954)
(0.0587604941 1.467302247e-14 -0.001323758021)
(0.05875952049 2.055131901e-14 -0.001391258297)
(0.05875853016 2.659390966e-14 -0.001456803309)
(0.05875752845 3.269872009e-14 -0.001520467735)
(0.058756517 3.879430652e-14 -0.00158248572)
(0.05875549547 4.484499102e-14 -0.001643118859)
(0.05875445996 5.087882624e-14 -0.001702741927)
(0.05875340558 5.699325715e-14 -0.001761696971)
(0.05875232577 6.338086926e-14 -0.001820356117)
(0.05875121584 7.032963432e-14 -0.001878963211)
(0.05875007296 7.824088309e-14 -0.001937685649)
(0.05874890033 8.761624586e-14 -0.001996457413)
(0.05874770713 9.906397869e-14 -0.002055044957)
(0.05874651223 1.132648993e-13 -0.002112920351)
(0.05874534279 1.309677042e-13 -0.002169374095)
(0.05874423582 1.529289797e-13 -0.00222345286)
(0.05874323391 1.799044059e-13 -0.002274140997)
(0.05874238318 2.125622054e-13 -0.002320378449)
(0.05874172583 2.514823414e-13 -0.002361292128)
(0.05874129497 2.970462763e-13 -0.00239625997)
(0.05874110684 3.494574749e-13 -0.002425113745)
(0.05874115649 4.086119204e-13 -0.002448158802)
(0.05874141549 4.741505999e-13 -0.002466237086)
(0.05874183418 5.453179883e-13 -0.002480607976)
(0.05874234887 6.210564098e-13 -0.00249281818)
(0.05874289135 6.998709227e-13 -0.002504449602)
(0.0587434011 7.799832745e-13 -0.002516900393)
(0.05874383388 8.592428908e-13 -0.00253116431)
(0.05874416753 9.353682325e-13 -0.002547752821)
(0.05874440022 1.005953848e-12 -0.002566696951)
(0.05874454461 1.068805765e-12 -0.002587722278)
(0.05874461833 1.122047483e-12 -0.0026104217)
)
;

boundaryField
{
    left
    {
        type            calculated;
        value           uniform (-0.05876807766 -6.81461144e-12 -8.713339082e-05);
    }
    right
    {
        type            calculated;
        value           uniform (0.05874463562 -5.646554996e-12 -0.002634485761);
    }
    beam
    {
        type            empty;
        value           nonuniform List<vector> 0();
    }
}


// ************************************************************************* //
