/*--------------------------------*- C++ -*----------------------------------*\
| =========                 |                                                 |
| \\      /  F ield         | OpenFOAM: The Open Source CFD Toolbox           |
|  \\    /   O peration     | Version:  2312                                  |
|   \\  /    A nd           | Website:  www.openfoam.com                      |
|    \\/     M anipulation  |                                                 |
\*---------------------------------------------------------------------------*/
FoamFile
{
    version     2.0;
    format      ascii;
    arch        "LSB;label=32;scalar=64";
    class       volVectorField;
    location    "0.12/beam";
    object      Theta;
}
// * * * * * * * * * * * * * * * * * * * * * * * * * * * * * * * * * * * * * //

dimensions      [0 0 0 0 0 0 0];

internalField   nonuniform List<vector> 
60
(
(1.837791448e-14 -0.00116067812 2.68860278e-14)
(1.837835967e-14 -0.001088628054 2.356704014e-14)
(1.837923729e-14 -0.0009479579694 1.698450745e-14)
(1.838053778e-14 -0.0007360416613 7.25598174e-15)
(1.838223468e-14 -0.0004536069069 -5.437599295e-15)
(1.838428207e-14 -9.921662753e-05 -2.084624837e-14)
(1.838660403e-14 0.0003272809888 -3.864380784e-14)
(1.838908609e-14 0.0008266412575 -5.842399229e-14)
(1.839156787e-14 0.001398897167 -7.969022746e-14)
(1.839383453e-14 0.002043947267 -1.018550562e-13)
(1.839560446e-14 0.00276099925 -1.242381479e-13)
(1.839652865e-14 0.003548710427 -1.460645819e-13)
(1.839617648e-14 0.004404934603 -1.664736168e-13)
(1.839401533e-14 0.005326738783 -1.845311116e-13)
(1.838939299e-14 0.006310302586 -1.992458848e-13)
(1.838151086e-14 0.007350940395 -2.095935989e-13)
(1.836938947e-14 0.008443108941 -2.145471128e-13)
(1.835181726e-14 0.009580486497 -2.131132711e-13)
(1.832736398e-14 0.01075607334 -2.043677704e-13)
(1.829427709e-14 0.01196234196 -1.875053236e-13)
(1.825050642e-14 0.01319141536 -1.618779057e-13)
(1.819369704e-14 0.01443527877 -1.270346252e-13)
(1.812120094e-14 0.01568594031 -8.276004177e-14)
(1.803009592e-14 0.01693596017 -2.90828057e-14)
(1.791733574e-14 0.01817827386 3.369929806e-14)
(1.777971983e-14 0.01940671403 1.050486876e-13)
(1.761412995e-14 0.02061615633 1.842135219e-13)
(1.741747638e-14 0.02180269844 2.703136201e-13)
(1.718692581e-14 0.02296378701 3.624049518e-13)
(1.69197595e-14 0.02409827572 4.596629145e-13)
(1.661488244e-14 0.0252064005 5.615051349e-13)
(1.626725169e-14 0.02628965723 6.676854455e-13)
(1.587561044e-14 0.02735057377 7.786605999e-13)
(1.543673219e-14 0.02839237215 8.957029962e-13)
(1.494656607e-14 0.0294185278 1.021055523e-12)
(1.439943692e-14 0.03043224404 1.158146892e-12)
(1.378768946e-14 0.03143587477 1.311673182e-12)
(1.310067568e-14 0.03243034571 1.487667437e-12)
(1.232425074e-14 0.0334146373 1.693457242e-12)
(1.143943422e-14 0.03438540763 1.937547501e-12)
(1.042152558e-14 0.0353368325 2.229390803e-12)
(9.237830061e-15 0.0362607385 2.579062753e-12)
(7.845272743e-15 0.03714707428 2.996836079e-12)
(6.185097534e-15 0.03798473703 3.49267495e-12)
(4.175755475e-15 0.03876270328 4.075661617e-12)
(1.699526939e-15 0.03947136989 4.753380079e-12)
(-1.415699589e-15 0.04010391966 5.531276363e-12)
(-5.424701784e-15 0.04065752396 6.412014677e-12)
(-1.069775302e-14 0.04113410205 7.394840931e-12)
(-1.775856609e-14 0.04154051072 8.474953953e-12)
(-2.730363775e-14 0.04188789981 9.642889597e-12)
(-4.018482705e-14 0.04219045889 1.088388392e-11)
(-5.729566351e-14 0.04246330689 1.2177193e-11)
(-7.930370522e-14 0.04272045098 1.349531495e-11)
(-1.061314683e-13 0.04297205454 1.480302196e-11)
(-1.361154211e-13 0.04322314193 1.605607608e-11)
(-1.64778874e-13 0.04347077902 1.719938357e-11)
(-1.83268886e-13 0.04370465759 1.816425966e-11)
(-1.766061857e-13 0.04390193549 1.886419208e-11)
(-1.220333324e-13 0.04402968099 1.918812608e-11)
)
;

boundaryField
{
    left
    {
        type            momentBeamRotationNR;
        value           uniform (1.837791448e-14 -0.00116067812 2.68860278e-14);
        momentSeries    
{
        file            "$FOAM_CASE/constant/beam/timeVsMoment";
        outOfBounds     clamp;
}
        moment          uniform (0 0 0);
    }
    right
    {
        type            momentBeamRotationNR;
        value           uniform (-1.220333324e-13 0.04402968099 1.918812608e-11);
        momentSeries    
{
        file            "$FOAM_CASE/constant/beam/timeVsMoment";
        outOfBounds     clamp;
}
        moment          uniform (0 0 0);
    }
    beam
    {
        type            empty;
    }
}


// ************************************************************************* //
