/*--------------------------------*- C++ -*----------------------------------*\
| =========                 |                                                 |
| \\      /  F ield         | OpenFOAM: The Open Source CFD Toolbox           |
|  \\    /   O peration     | Version:  2312                                  |
|   \\  /    A nd           | Website:  www.openfoam.com                      |
|    \\/     M anipulation  |                                                 |
\*---------------------------------------------------------------------------*/
FoamFile
{
    version     2.0;
    format      ascii;
    arch        "LSB;label=32;scalar=64";
    class       volVectorField;
    location    "0.12/beam";
    object      W;
}
// * * * * * * * * * * * * * * * * * * * * * * * * * * * * * * * * * * * * * //

dimensions      [0 1 0 0 0 0 0];

internalField   nonuniform List<vector> 
60
(
(8.613554018e-06 1.639581411e-15 2.475947678e-05)
(2.584236501e-05 2.838094299e-15 7.273354444e-05)
(4.307596316e-05 3.795985656e-15 0.0001160678248)
(6.031647079e-05 4.357320078e-15 0.0001516526458)
(7.756439178e-05 4.373070854e-15 0.0001763557736)
(9.481792809e-05 3.70419273e-15 0.0001870175995)
(0.0001120722735 2.224994935e-15 0.0001804502935)
(0.0001293188875 -1.732004143e-16 0.0001534417463)
(0.0001465447661 -3.578092604e-15 0.0001027648925)
(0.000163731733 -8.052132887e-15 2.519268538e-05)
(0.0001808557842 -1.362823008e-14 -8.248123096e-05)
(0.0001978865282 -2.030532276e-14 -0.0002234164443)
(0.0002147867667 -2.804413202e-14 -0.0004006949322)
(0.0002315122645 -3.676337791e-14 -0.0006172863246)
(0.000248011754 -4.633667759e-14 -0.0008760105229)
(0.0002642272111 -5.659037743e-14 -0.001179499038)
(0.0002800944268 -6.730265239e-14 -0.00153015672)
(0.0002955438818 -7.820419452e-14 -0.001930125572)
(0.0003105019073 -8.89805871e-14 -0.002381252445)
(0.0003248920943 -9.927671905e-14 -0.002885062352)
(0.0003386368864 -1.087032948e-13 -0.003442739027)
(0.0003516592735 -1.168452657e-13 -0.004055114153)
(0.0003638837916 -1.232717407e-13 -0.004722628683)
(0.0003752409621 -1.275493813e-13 -0.005445487004)
(0.0003856640912 -1.292516809e-13 -0.006223476294)
(0.0003950937739 -1.279748764e-13 -0.007056105046)
(0.0004034769339 -1.233465908e-13 -0.00794265632)
(0.0004107678677 -1.150379703e-13 -0.008882188941)
(0.0004169269114 -1.027662445e-13 -0.009873642708)
(0.0004219206074 -8.629890529e-14 -0.01091585207)
(0.0004257194344 -6.544318206e-14 -0.01200765429)
(0.000428297364 -4.003891345e-14 -0.0131479026)
(0.0004296291526 -9.932711536e-15 -0.01433556128)
(0.0004296899295 2.505096954e-14 -0.01556970053)
(0.0004284528556 6.515281063e-14 -0.01684955992)
(0.0004258896384 1.107221384e-13 -0.01817450623)
(0.0004219694807 1.622763615e-13 -0.01954404973)
(0.0004166613868 2.205544813e-13 -0.02095775316)
(0.0004099350776 2.865824253e-13 -0.02241519719)
(0.0004017654559 3.617227484e-13 -0.02391584622)
(0.0003921353831 4.477308286e-13 -0.0254589813)
(0.0003810415659 5.467815613e-13 -0.02704355454)
(0.000368497773 6.614985025e-13 -0.02866813337)
(0.0003545399228 7.949369407e-13 -0.0303307991)
(0.0003392270218 9.505697053e-13 -0.03202916057)
(0.000322642349 1.132209866e-12 -0.03376035416)
(0.0003048894276 1.343943162e-12 -0.0355211678)
(0.0002860873907 1.589982057e-12 -0.03730816276)
(0.0002663618122 1.874544024e-12 -0.03911789224)
(0.0002458359792 2.201639841e-12 -0.04094709346)
(0.0002246204885 2.574907118e-12 -0.04279291137)
(0.0002028059135 2.997348302e-12 -0.04465304399)
(0.0001804573134 3.471138839e-12 -0.0465258452)
(0.000157613997 3.997341924e-12 -0.0484103069)
(0.000134292863 4.575716639e-12 -0.05030596285)
(0.0001104970053 5.204438468e-12 -0.05221267544)
(8.622721403e-05 5.87991553e-12 -0.05413036259)
(6.149762206e-05 6.59650098e-12 -0.05605863749)
(3.635404035e-05 7.346231128e-12 -0.05799639642)
(1.089826471e-05 8.118351312e-12 -0.0599412785)
)
;

boundaryField
{
    left
    {
        type            fixedValue;
        value           uniform (0 0 0);
    }
    right
    {
        type            fixedValue;
        value           uniform (-1.892090851e-06 8.507520755e-12 -0.06091522049);
    }
    beam
    {
        type            empty;
    }
}


// ************************************************************************* //
