/*--------------------------------*- C++ -*----------------------------------*\
| =========                 |                                                 |
| \\      /  F ield         | foam-extend: Open Source CFD                    |
|  \\    /   O peration     | Version:     4.1                                |
|   \\  /    A nd           | Web:         http://www.foam-extend.org         |
|    \\/     M anipulation  |                                                 |
\*---------------------------------------------------------------------------*/
FoamFile
{
    version     2.0;
    format      ascii;
    class       pointVectorField;
    location    "0";
    object      pointW;
}
// * * * * * * * * * * * * * * * * * * * * * * * * * * * * * * * * * * * * * //

dimensions      [0 1 0 0 0 0 0];

internalField   nonuniform List<vector> 
1408
(
(0 0 0)
(0 0 0)
(0 0 0)
(0 0 0)
(0 0 0)
(0 0 0)
(0 0 0)
(0 0 0)
(0 0 0)
(0 0 0)
(0 0 0)
(0 0 0)
(0 0 0)
(0 0 0)
(0 0 0)
(0 0 0)
(0 0 0)
(0 0 0)
(0 0 0)
(0 0 0)
(0 0 0)
(0 0 0)
(0 0 0)
(0 0 0)
(0 0 0)
(0 0 0)
(0 0 0)
(0 0 0)
(0 0 0)
(0 0 0)
(0 0 0)
(0 0 0)
(0 0 0)
(0 0 0)
(0 0 0)
(0 0 0)
(0 0 0)
(0 0 0)
(0 0 0)
(0 0 0)
(0 0 0)
(0 0 0)
(0 0 0)
(0 0 0)
(0 0 0)
(0 0 0)
(0 0 0)
(0 0 0)
(0 0 0)
(0 0 0)
(0 0 0)
(0 0 0)
(0 0 0)
(0 0 0)
(0 0 0)
(0 0 0)
(0 0 0)
(0 0 0)
(0 0 0)
(0 0 0)
(0 0 0)
(0 0 0)
(0 0 0)
(0 0 0)
(0 0 0)
(0 0 0)
(0 0 0)
(0 0 0)
(0 0 0)
(0 0 0)
(0 0 0)
(0 0 0)
(0 0 0)
(0 0 0)
(0 0 0)
(0 0 0)
(0 0 0)
(0 0 0)
(0 0 0)
(0 0 0)
(0 0 0)
(0 0 0)
(0 0 0)
(0 0 0)
(0 0 0)
(0 0 0)
(0 0 0)
(0 0 0)
(0 0 0)
(0 0 0)
(0 0 0)
(0 0 0)
(0 0 0)
(0 0 0)
(0 0 0)
(0 0 0)
(0 0 0)
(0 0 0)
(0 0 0)
(0 0 0)
(0 0 0)
(0 0 0)
(0 0 0)
(0 0 0)
(0 0 0)
(0 0 0)
(0 0 0)
(0 0 0)
(0 0 0)
(0 0 0)
(0 0 0)
(0 0 0)
(0 0 0)
(0 0 0)
(0 0 0)
(0 0 0)
(0 0 0)
(0 0 0)
(0 0 0)
(0 0 0)
(0 0 0)
(0 0 0)
(0 0 0)
(0 0 0)
(0 0 0)
(0 0 0)
(0 0 0)
(0 0 0)
(0 0 0)
(0 0 0)
(0 0 0)
(0 0 0)
(0 0 0)
(0 0 0)
(0 0 0)
(0 0 0)
(0 0 0)
(0 0 0)
(0 0 0)
(0 0 0)
(0 0 0)
(0 0 0)
(0 0 0)
(0 0 0)
(0 0 0)
(0 0 0)
(0 0 0)
(0 0 0)
(0 0 0)
(0 0 0)
(0 0 0)
(0 0 0)
(0 0 0)
(0 0 0)
(0 0 0)
(0 0 0)
(0 0 0)
(0 0 0)
(0 0 0)
(0 0 0)
(0 0 0)
(0 0 0)
(0 0 0)
(0 0 0)
(0 0 0)
(0 0 0)
(0 0 0)
(0 0 0)
(0 0 0)
(0 0 0)
(0 0 0)
(0 0 0)
(0 0 0)
(0 0 0)
(0 0 0)
(0 0 0)
(0 0 0)
(0 0 0)
(0 0 0)
(0 0 0)
(0 0 0)
(0 0 0)
(0 0 0)
(0 0 0)
(0 0 0)
(0 0 0)
(0 0 0)
(0 0 0)
(0 0 0)
(0 0 0)
(0 0 0)
(0 0 0)
(0 0 0)
(0 0 0)
(0 0 0)
(0 0 0)
(0 0 0)
(0 0 0)
(0 0 0)
(0 0 0)
(0 0 0)
(0 0 0)
(0 0 0)
(0 0 0)
(0 0 0)
(0 0 0)
(0 0 0)
(0 0 0)
(0 0 0)
(0 0 0)
(0 0 0)
(0 0 0)
(0 0 0)
(0 0 0)
(0 0 0)
(0 0 0)
(0 0 0)
(0 0 0)
(0 0 0)
(0 0 0)
(0 0 0)
(0 0 0)
(0 0 0)
(0 0 0)
(0 0 0)
(0 0 0)
(0 0 0)
(0 0 0)
(0 0 0)
(0 0 0)
(0 0 0)
(0 0 0)
(0 0 0)
(0 0 0)
(0 0 0)
(0 0 0)
(0 0 0)
(0 0 0)
(0 0 0)
(0 0 0)
(0 0 0)
(0 0 0)
(0 0 0)
(0 0 0)
(0 0 0)
(0 0 0)
(0 0 0)
(0 0 0)
(0 0 0)
(0 0 0)
(0 0 0)
(0 0 0)
(0 0 0)
(0 0 0)
(0 0 0)
(0 0 0)
(0 0 0)
(0 0 0)
(0 0 0)
(0 0 0)
(0 0 0)
(0 0 0)
(0 0 0)
(0 0 0)
(0 0 0)
(0 0 0)
(0 0 0)
(0 0 0)
(0 0 0)
(0 0 0)
(0 0 0)
(0 0 0)
(0 0 0)
(0 0 0)
(0 0 0)
(0 0 0)
(0 0 0)
(0 0 0)
(0 0 0)
(0 0 0)
(0 0 0)
(0 0 0)
(0 0 0)
(0 0 0)
(0 0 0)
(0 0 0)
(0 0 0)
(0 0 0)
(0 0 0)
(0 0 0)
(0 0 0)
(0 0 0)
(0 0 0)
(0 0 0)
(0 0 0)
(0 0 0)
(0 0 0)
(0 0 0)
(0 0 0)
(0 0 0)
(0 0 0)
(0 0 0)
(0 0 0)
(0 0 0)
(0 0 0)
(0 0 0)
(0 0 0)
(0 0 0)
(0 0 0)
(0 0 0)
(0 0 0)
(0 0 0)
(0 0 0)
(0 0 0)
(0 0 0)
(0 0 0)
(0 0 0)
(0 0 0)
(0 0 0)
(0 0 0)
(0 0 0)
(0 0 0)
(0 0 0)
(0 0 0)
(0 0 0)
(0 0 0)
(0 0 0)
(0 0 0)
(0 0 0)
(0 0 0)
(0 0 0)
(0 0 0)
(0 0 0)
(0 0 0)
(0 0 0)
(0 0 0)
(0 0 0)
(0 0 0)
(0 0 0)
(0 0 0)
(0 0 0)
(0 0 0)
(0 0 0)
(0 0 0)
(0 0 0)
(0 0 0)
(0 0 0)
(0 0 0)
(0 0 0)
(0 0 0)
(0 0 0)
(0 0 0)
(0 0 0)
(0 0 0)
(0 0 0)
(0 0 0)
(0 0 0)
(0 0 0)
(0 0 0)
(0 0 0)
(0 0 0)
(0 0 0)
(0 0 0)
(0 0 0)
(0 0 0)
(0 0 0)
(0 0 0)
(0 0 0)
(0 0 0)
(0 0 0)
(0 0 0)
(0 0 0)
(0 0 0)
(0 0 0)
(0 0 0)
(0 0 0)
(0 0 0)
(0 0 0)
(0 0 0)
(0 0 0)
(0 0 0)
(0 0 0)
(0 0 0)
(0 0 0)
(0 0 0)
(0 0 0)
(0 0 0)
(0 0 0)
(0 0 0)
(0 0 0)
(0 0 0)
(0 0 0)
(0 0 0)
(0 0 0)
(0 0 0)
(0 0 0)
(0 0 0)
(0 0 0)
(0 0 0)
(0 0 0)
(0 0 0)
(0 0 0)
(0 0 0)
(0 0 0)
(0 0 0)
(0 0 0)
(0 0 0)
(0 0 0)
(0 0 0)
(0 0 0)
(0 0 0)
(0 0 0)
(0 0 0)
(0 0 0)
(0 0 0)
(0 0 0)
(0 0 0)
(0 0 0)
(0 0 0)
(0 0 0)
(0 0 0)
(0 0 0)
(0 0 0)
(0 0 0)
(0 0 0)
(0 0 0)
(0 0 0)
(0 0 0)
(0 0 0)
(0 0 0)
(0 0 0)
(0 0 0)
(0 0 0)
(0 0 0)
(0 0 0)
(0 0 0)
(0 0 0)
(0 0 0)
(0 0 0)
(0 0 0)
(0 0 0)
(0 0 0)
(0 0 0)
(0 0 0)
(0 0 0)
(0 0 0)
(0 0 0)
(0 0 0)
(0 0 0)
(0 0 0)
(0 0 0)
(0 0 0)
(0 0 0)
(0 0 0)
(0 0 0)
(0 0 0)
(0 0 0)
(0 0 0)
(0 0 0)
(0 0 0)
(0 0 0)
(0 0 0)
(0 0 0)
(0 0 0)
(0 0 0)
(0 0 0)
(0 0 0)
(0 0 0)
(0 0 0)
(0 0 0)
(0 0 0)
(0 0 0)
(0 0 0)
(0 0 0)
(0 0 0)
(0 0 0)
(0 0 0)
(0 0 0)
(0 0 0)
(0 0 0)
(0 0 0)
(0 0 0)
(0 0 0)
(0 0 0)
(0 0 0)
(0 0 0)
(0 0 0)
(0 0 0)
(0 0 0)
(0 0 0)
(0 0 0)
(0 0 0)
(0 0 0)
(0 0 0)
(0 0 0)
(0 0 0)
(0 0 0)
(0 0 0)
(0 0 0)
(0 0 0)
(0 0 0)
(0 0 0)
(0 0 0)
(0 0 0)
(0 0 0)
(0 0 0)
(0 0 0)
(0 0 0)
(0 0 0)
(0 0 0)
(0 0 0)
(0 0 0)
(0 0 0)
(0 0 0)
(0 0 0)
(0 0 0)
(0 0 0)
(0 0 0)
(0 0 0)
(0 0 0)
(0 0 0)
(0 0 0)
(0 0 0)
(0 0 0)
(0 0 0)
(0 0 0)
(0 0 0)
(0 0 0)
(0 0 0)
(0 0 0)
(0 0 0)
(0 0 0)
(0 0 0)
(0 0 0)
(0 0 0)
(0 0 0)
(0 0 0)
(0 0 0)
(0 0 0)
(0 0 0)
(0 0 0)
(0 0 0)
(0 0 0)
(0 0 0)
(0 0 0)
(0 0 0)
(0 0 0)
(0 0 0)
(0 0 0)
(0 0 0)
(0 0 0)
(0 0 0)
(0 0 0)
(0 0 0)
(0 0 0)
(0 0 0)
(0 0 0)
(0 0 0)
(0 0 0)
(0 0 0)
(0 0 0)
(0 0 0)
(0 0 0)
(0 0 0)
(0 0 0)
(0 0 0)
(0 0 0)
(0 0 0)
(0 0 0)
(0 0 0)
(0 0 0)
(0 0 0)
(0 0 0)
(0 0 0)
(0 0 0)
(0 0 0)
(0 0 0)
(0 0 0)
(0 0 0)
(0 0 0)
(0 0 0)
(0 0 0)
(0 0 0)
(0 0 0)
(0 0 0)
(0 0 0)
(0 0 0)
(0 0 0)
(0 0 0)
(0 0 0)
(0 0 0)
(0 0 0)
(0 0 0)
(0 0 0)
(0 0 0)
(0 0 0)
(0 0 0)
(0 0 0)
(0 0 0)
(0 0 0)
(0 0 0)
(0 0 0)
(0 0 0)
(0 0 0)
(0 0 0)
(0 0 0)
(0 0 0)
(0 0 0)
(0 0 0)
(0 0 0)
(0 0 0)
(0 0 0)
(0 0 0)
(0 0 0)
(0 0 0)
(0 0 0)
(0 0 0)
(0 0 0)
(0 0 0)
(0 0 0)
(0 0 0)
(0 0 0)
(0 0 0)
(0 0 0)
(0 9.62965e-35 0)
(0 0 0)
(0 0 0)
(0 0 0)
(0 0 0)
(0 0 0)
(0 0 0)
(0 0 0)
(0 0 0)
(0 0 0)
(0 0 0)
(0 0 0)
(0 0 0)
(0 0 0)
(0 0 0)
(0 0 0)
(0 0 0)
(0 0 0)
(0 0 0)
(0 0 0)
(0 0 0)
(0 0 0)
(0 0 0)
(0 0 0)
(0 0 0)
(0 0 0)
(0 0 0)
(0 0 0)
(0 0 0)
(0 0 0)
(0 0 0)
(0 0 0)
(0 0 0)
(0 0 0)
(0 0 0)
(0 0 0)
(0 0 0)
(0 0 0)
(0 0 0)
(0 0 0)
(0 0 0)
(0 0 0)
(0 0 0)
(0 0 0)
(0 0 0)
(0 0 0)
(0 0 0)
(0 0 0)
(0 0 0)
(0 0 0)
(0 0 0)
(0 0 0)
(0 0 0)
(0 0 0)
(0 0 0)
(0 0 0)
(0 0 0)
(0 0 0)
(0 0 0)
(0 0 0)
(0 0 0)
(0 0 0)
(0 0 0)
(0 0 0)
(0 0 0)
(0 0 0)
(0 0 0)
(0 0 0)
(0 0 0)
(0 0 0)
(0 0 0)
(0 0 0)
(0 0 0)
(0 0 0)
(0 0 0)
(0 0 0)
(0 0 0)
(0 0 0)
(0 0 0)
(0 0 0)
(0.3615 0.01 0.4125)
(0.361596 0.01 0.412404)
(0.361881 0.01 0.412119)
(0.362343 0.01 0.411657)
(0.362964 0.01 0.411036)
(0.363722 0.01 0.410278)
(0.364587 0.01 0.409413)
(0.365525 0.01 0.408475)
(0.3665 0.01 0.4075)
(0.367475 0.01 0.406525)
(0.368413 0.01 0.405587)
(0.369278 0.01 0.404722)
(0.370036 0.01 0.403964)
(0.370657 0.01 0.403343)
(0.371119 0.01 0.402881)
(0.371404 0.01 0.402596)
(0.3715 0.01 0.4025)
(0.371404 0.01 0.402596)
(0.371119 0.01 0.402881)
(0.370657 0.01 0.403343)
(0.370036 0.01 0.403964)
(0.369278 0.01 0.404722)
(0.368413 0.01 0.405587)
(0.367475 0.01 0.406525)
(0.3665 0.01 0.4075)
(0.365525 0.01 0.408475)
(0.364587 0.01 0.409413)
(0.363722 0.01 0.410278)
(0.362964 0.01 0.411036)
(0.362343 0.01 0.411657)
(0.361881 0.01 0.412119)
(0.361596 0.01 0.412404)
(0.337691 0.01 0.38869)
(0.337787 0.01 0.388594)
(0.338071 0.01 0.38831)
(0.338533 0.01 0.387848)
(0.339155 0.01 0.387226)
(0.339913 0.01 0.386468)
(0.340777 0.01 0.385604)
(0.341715 0.01 0.384666)
(0.342691 0.01 0.38369)
(0.343666 0.01 0.382715)
(0.344604 0.01 0.381777)
(0.345468 0.01 0.380913)
(0.346226 0.01 0.380155)
(0.346848 0.01 0.379533)
(0.34731 0.01 0.379071)
(0.347594 0.01 0.378787)
(0.347691 0.01 0.37869)
(0.347594 0.01 0.378787)
(0.34731 0.01 0.379071)
(0.346848 0.01 0.379533)
(0.346226 0.01 0.380155)
(0.345468 0.01 0.380913)
(0.344604 0.01 0.381777)
(0.343666 0.01 0.382715)
(0.342691 0.01 0.38369)
(0.341715 0.01 0.384666)
(0.340777 0.01 0.385604)
(0.339913 0.01 0.386468)
(0.339155 0.01 0.387226)
(0.338533 0.01 0.387848)
(0.338071 0.01 0.38831)
(0.337787 0.01 0.388594)
(0.313881 0.01 0.364881)
(0.313977 0.01 0.364785)
(0.314262 0.01 0.3645)
(0.314724 0.01 0.364038)
(0.315345 0.01 0.363417)
(0.316103 0.01 0.362659)
(0.316968 0.01 0.361794)
(0.317906 0.01 0.360856)
(0.318881 0.01 0.359881)
(0.319856 0.01 0.358906)
(0.320794 0.01 0.357968)
(0.321659 0.01 0.357103)
(0.322417 0.01 0.356345)
(0.323038 0.01 0.355724)
(0.3235 0.01 0.355262)
(0.323785 0.01 0.354977)
(0.323881 0.01 0.354881)
(0.323785 0.01 0.354977)
(0.3235 0.01 0.355262)
(0.323038 0.01 0.355724)
(0.322417 0.01 0.356345)
(0.321659 0.01 0.357103)
(0.320794 0.01 0.357968)
(0.319856 0.01 0.358906)
(0.318881 0.01 0.359881)
(0.317906 0.01 0.360856)
(0.316968 0.01 0.361794)
(0.316103 0.01 0.362659)
(0.315345 0.01 0.363417)
(0.314724 0.01 0.364038)
(0.314262 0.01 0.3645)
(0.313977 0.01 0.364785)
(0.290071 0.01 0.341071)
(0.290167 0.01 0.340975)
(0.290452 0.01 0.340691)
(0.290914 0.01 0.340229)
(0.291536 0.01 0.339607)
(0.292294 0.01 0.338849)
(0.293158 0.01 0.337985)
(0.294096 0.01 0.337047)
(0.295071 0.01 0.336071)
(0.296047 0.01 0.335096)
(0.296985 0.01 0.334158)
(0.297849 0.01 0.333294)
(0.298607 0.01 0.332536)
(0.299229 0.01 0.331914)
(0.299691 0.01 0.331452)
(0.299975 0.01 0.331167)
(0.300071 0.01 0.331071)
(0.299975 0.01 0.331167)
(0.299691 0.01 0.331452)
(0.299229 0.01 0.331914)
(0.298607 0.01 0.332536)
(0.297849 0.01 0.333294)
(0.296985 0.01 0.334158)
(0.296047 0.01 0.335096)
(0.295071 0.01 0.336071)
(0.294096 0.01 0.337047)
(0.293158 0.01 0.337985)
(0.292294 0.01 0.338849)
(0.291536 0.01 0.339607)
(0.290914 0.01 0.340229)
(0.290452 0.01 0.340691)
(0.290167 0.01 0.340975)
(0.266262 0.01 0.317262)
(0.266358 0.01 0.317166)
(0.266643 0.01 0.316881)
(0.267105 0.01 0.316419)
(0.267726 0.01 0.315797)
(0.268484 0.01 0.31504)
(0.269348 0.01 0.314175)
(0.270286 0.01 0.313237)
(0.271262 0.01 0.312262)
(0.272237 0.01 0.311286)
(0.273175 0.01 0.310348)
(0.27404 0.01 0.309484)
(0.274797 0.01 0.308726)
(0.275419 0.01 0.308105)
(0.275881 0.01 0.307642)
(0.276166 0.01 0.307358)
(0.276262 0.01 0.307262)
(0.276166 0.01 0.307358)
(0.275881 0.01 0.307642)
(0.275419 0.01 0.308105)
(0.274797 0.01 0.308726)
(0.27404 0.01 0.309484)
(0.273175 0.01 0.310348)
(0.272237 0.01 0.311286)
(0.271262 0.01 0.312262)
(0.270286 0.01 0.313237)
(0.269348 0.01 0.314175)
(0.268484 0.01 0.31504)
(0.267726 0.01 0.315797)
(0.267105 0.01 0.316419)
(0.266643 0.01 0.316881)
(0.266358 0.01 0.317166)
(0.242452 0.01 0.293452)
(0.242548 0.01 0.293356)
(0.242833 0.01 0.293071)
(0.243295 0.01 0.292609)
(0.243916 0.01 0.291988)
(0.244674 0.01 0.29123)
(0.245539 0.01 0.290365)
(0.246477 0.01 0.289427)
(0.247452 0.01 0.288452)
(0.248427 0.01 0.287477)
(0.249365 0.01 0.286539)
(0.25023 0.01 0.285674)
(0.250988 0.01 0.284916)
(0.251609 0.01 0.284295)
(0.252071 0.01 0.283833)
(0.252356 0.01 0.283548)
(0.252452 0.01 0.283452)
(0.252356 0.01 0.283548)
(0.252071 0.01 0.283833)
(0.251609 0.01 0.284295)
(0.250988 0.01 0.284916)
(0.25023 0.01 0.285674)
(0.249365 0.01 0.286539)
(0.248427 0.01 0.287477)
(0.247452 0.01 0.288452)
(0.246477 0.01 0.289427)
(0.245539 0.01 0.290365)
(0.244674 0.01 0.29123)
(0.243916 0.01 0.291988)
(0.243295 0.01 0.292609)
(0.242833 0.01 0.293071)
(0.242548 0.01 0.293356)
(0.218643 0.01 0.269643)
(0.218739 0.01 0.269547)
(0.219024 0.01 0.269262)
(0.219486 0.01 0.2688)
(0.220107 0.01 0.268179)
(0.220865 0.01 0.267421)
(0.22173 0.01 0.266556)
(0.222668 0.01 0.265618)
(0.223643 0.01 0.264643)
(0.224618 0.01 0.263668)
(0.225556 0.01 0.26273)
(0.226421 0.01 0.261865)
(0.227179 0.01 0.261107)
(0.2278 0.01 0.260486)
(0.228262 0.01 0.260024)
(0.228547 0.01 0.259739)
(0.228643 0.01 0.259643)
(0.228547 0.01 0.259739)
(0.228262 0.01 0.260024)
(0.2278 0.01 0.260486)
(0.227179 0.01 0.261107)
(0.226421 0.01 0.261865)
(0.225556 0.01 0.26273)
(0.224618 0.01 0.263668)
(0.223643 0.01 0.264643)
(0.222668 0.01 0.265618)
(0.22173 0.01 0.266556)
(0.220865 0.01 0.267421)
(0.220107 0.01 0.268179)
(0.219486 0.01 0.2688)
(0.219024 0.01 0.269262)
(0.218739 0.01 0.269547)
(0.194833 0.01 0.245833)
(0.194929 0.01 0.245737)
(0.195214 0.01 0.245452)
(0.195676 0.01 0.24499)
(0.196297 0.01 0.244369)
(0.197055 0.01 0.243611)
(0.19792 0.01 0.242746)
(0.198858 0.01 0.241808)
(0.199833 0.01 0.240833)
(0.200808 0.01 0.239858)
(0.201746 0.01 0.23892)
(0.202611 0.01 0.238055)
(0.203369 0.01 0.237297)
(0.20399 0.01 0.236676)
(0.204452 0.01 0.236214)
(0.204737 0.01 0.235929)
(0.204833 0.01 0.235833)
(0.204737 0.01 0.235929)
(0.204452 0.01 0.236214)
(0.20399 0.01 0.236676)
(0.203369 0.01 0.237297)
(0.202611 0.01 0.238055)
(0.201746 0.01 0.23892)
(0.200808 0.01 0.239858)
(0.199833 0.01 0.240833)
(0.198858 0.01 0.241808)
(0.19792 0.01 0.242746)
(0.197055 0.01 0.243611)
(0.196297 0.01 0.244369)
(0.195676 0.01 0.24499)
(0.195214 0.01 0.245452)
(0.194929 0.01 0.245737)
(0.171024 0.01 0.222024)
(0.17112 0.01 0.221928)
(0.171405 0.01 0.221643)
(0.171867 0.01 0.221181)
(0.172488 0.01 0.22056)
(0.173246 0.01 0.219802)
(0.174111 0.01 0.218937)
(0.175049 0.01 0.217999)
(0.176024 0.01 0.217024)
(0.176999 0.01 0.216049)
(0.177937 0.01 0.215111)
(0.178802 0.01 0.214246)
(0.17956 0.01 0.213488)
(0.180181 0.01 0.212867)
(0.180643 0.01 0.212405)
(0.180928 0.01 0.21212)
(0.181024 0.01 0.212024)
(0.180928 0.01 0.21212)
(0.180643 0.01 0.212405)
(0.180181 0.01 0.212867)
(0.17956 0.01 0.213488)
(0.178802 0.01 0.214246)
(0.177937 0.01 0.215111)
(0.176999 0.01 0.216049)
(0.176024 0.01 0.217024)
(0.175049 0.01 0.217999)
(0.174111 0.01 0.218937)
(0.173246 0.01 0.219802)
(0.172488 0.01 0.22056)
(0.171867 0.01 0.221181)
(0.171405 0.01 0.221643)
(0.17112 0.01 0.221928)
(0.147214 0.01 0.198214)
(0.14731 0.01 0.198118)
(0.147595 0.01 0.197833)
(0.148057 0.01 0.197371)
(0.148678 0.01 0.19675)
(0.149436 0.01 0.195992)
(0.150301 0.01 0.195127)
(0.151239 0.01 0.194189)
(0.152214 0.01 0.193214)
(0.153189 0.01 0.192239)
(0.154127 0.01 0.191301)
(0.154992 0.01 0.190436)
(0.15575 0.01 0.189678)
(0.156371 0.01 0.189057)
(0.156833 0.01 0.188595)
(0.157118 0.01 0.18831)
(0.157214 0.01 0.188214)
(0.157118 0.01 0.18831)
(0.156833 0.01 0.188595)
(0.156371 0.01 0.189057)
(0.15575 0.01 0.189678)
(0.154992 0.01 0.190436)
(0.154127 0.01 0.191301)
(0.153189 0.01 0.192239)
(0.152214 0.01 0.193214)
(0.151239 0.01 0.194189)
(0.150301 0.01 0.195127)
(0.149436 0.01 0.195992)
(0.148678 0.01 0.19675)
(0.148057 0.01 0.197371)
(0.147595 0.01 0.197833)
(0.14731 0.01 0.198118)
(0.123405 0.01 0.174405)
(0.123501 0.01 0.174309)
(0.123786 0.01 0.174024)
(0.124248 0.01 0.173562)
(0.124869 0.01 0.172941)
(0.125627 0.01 0.172183)
(0.126492 0.01 0.171318)
(0.12743 0.01 0.17038)
(0.128405 0.01 0.169405)
(0.12938 0.01 0.16843)
(0.130318 0.01 0.167492)
(0.131183 0.01 0.166627)
(0.131941 0.01 0.165869)
(0.132562 0.01 0.165248)
(0.133024 0.01 0.164786)
(0.133309 0.01 0.164501)
(0.133405 0.01 0.164405)
(0.133309 0.01 0.164501)
(0.133024 0.01 0.164786)
(0.132562 0.01 0.165248)
(0.131941 0.01 0.165869)
(0.131183 0.01 0.166627)
(0.130318 0.01 0.167492)
(0.12938 0.01 0.16843)
(0.128405 0.01 0.169405)
(0.12743 0.01 0.17038)
(0.126492 0.01 0.171318)
(0.125627 0.01 0.172183)
(0.124869 0.01 0.172941)
(0.124248 0.01 0.173562)
(0.123786 0.01 0.174024)
(0.123501 0.01 0.174309)
(0.099595 0.01 0.150595)
(0.0996911 0.01 0.150499)
(0.0999756 0.01 0.150214)
(0.100438 0.01 0.149752)
(0.101059 0.01 0.149131)
(0.101817 0.01 0.148373)
(0.102682 0.01 0.147508)
(0.10362 0.01 0.14657)
(0.104595 0.01 0.145595)
(0.10557 0.01 0.14462)
(0.106508 0.01 0.143682)
(0.107373 0.01 0.142817)
(0.108131 0.01 0.142059)
(0.108752 0.01 0.141438)
(0.109214 0.01 0.140976)
(0.109499 0.01 0.140691)
(0.109595 0.01 0.140595)
(0.109499 0.01 0.140691)
(0.109214 0.01 0.140976)
(0.108752 0.01 0.141438)
(0.108131 0.01 0.142059)
(0.107373 0.01 0.142817)
(0.106508 0.01 0.143682)
(0.10557 0.01 0.14462)
(0.104595 0.01 0.145595)
(0.10362 0.01 0.14657)
(0.102682 0.01 0.147508)
(0.101817 0.01 0.148373)
(0.101059 0.01 0.149131)
(0.100438 0.01 0.149752)
(0.0999756 0.01 0.150214)
(0.0996911 0.01 0.150499)
(0.075786 0.01 0.126786)
(0.0758821 0.01 0.12669)
(0.0761666 0.01 0.126405)
(0.0766287 0.01 0.125943)
(0.0772505 0.01 0.125322)
(0.0780082 0.01 0.124564)
(0.0788726 0.01 0.123699)
(0.0798105 0.01 0.122761)
(0.080786 0.01 0.121786)
(0.0817615 0.01 0.120811)
(0.0826994 0.01 0.119873)
(0.0835639 0.01 0.119008)
(0.0843215 0.01 0.11825)
(0.0849434 0.01 0.117629)
(0.0854054 0.01 0.117167)
(0.0856899 0.01 0.116882)
(0.085786 0.01 0.116786)
(0.0856899 0.01 0.116882)
(0.0854054 0.01 0.117167)
(0.0849434 0.01 0.117629)
(0.0843215 0.01 0.11825)
(0.0835639 0.01 0.119008)
(0.0826994 0.01 0.119873)
(0.0817615 0.01 0.120811)
(0.080786 0.01 0.121786)
(0.0798105 0.01 0.122761)
(0.0788726 0.01 0.123699)
(0.0780082 0.01 0.124564)
(0.0772505 0.01 0.125322)
(0.0766287 0.01 0.125943)
(0.0761666 0.01 0.126405)
(0.0758821 0.01 0.12669)
(0.051976 0.01 0.102976)
(0.0520721 0.01 0.10288)
(0.0523566 0.01 0.102595)
(0.0528187 0.01 0.102133)
(0.0534405 0.01 0.101512)
(0.0541982 0.01 0.100754)
(0.0550626 0.01 0.0998894)
(0.0560005 0.01 0.0989515)
(0.056976 0.01 0.097976)
(0.0579515 0.01 0.0970005)
(0.0588894 0.01 0.0960626)
(0.0597539 0.01 0.0951982)
(0.0605115 0.01 0.0944405)
(0.0611334 0.01 0.0938187)
(0.0615954 0.01 0.0933566)
(0.0618799 0.01 0.0930721)
(0.061976 0.01 0.092976)
(0.0618799 0.01 0.0930721)
(0.0615954 0.01 0.0933566)
(0.0611334 0.01 0.0938187)
(0.0605115 0.01 0.0944405)
(0.0597539 0.01 0.0951982)
(0.0588894 0.01 0.0960626)
(0.0579515 0.01 0.0970005)
(0.056976 0.01 0.097976)
(0.0560005 0.01 0.0989515)
(0.0550626 0.01 0.0998894)
(0.0541982 0.01 0.100754)
(0.0534405 0.01 0.101512)
(0.0528187 0.01 0.102133)
(0.0523566 0.01 0.102595)
(0.0520721 0.01 0.10288)
(0.028167 0.01 0.079167)
(0.0282631 0.01 0.0790709)
(0.0285476 0.01 0.0787864)
(0.0290096 0.01 0.0783243)
(0.0296315 0.01 0.0777025)
(0.0303891 0.01 0.0769448)
(0.0312536 0.01 0.0760804)
(0.0321915 0.01 0.0751425)
(0.033167 0.01 0.074167)
(0.0341425 0.01 0.0731915)
(0.0350804 0.01 0.0722536)
(0.0359449 0.01 0.0713891)
(0.0367025 0.01 0.0706315)
(0.0373244 0.01 0.0700096)
(0.0377864 0.01 0.0695476)
(0.0380709 0.01 0.0692631)
(0.038167 0.01 0.069167)
(0.0380709 0.01 0.0692631)
(0.0377864 0.01 0.0695476)
(0.0373244 0.01 0.0700096)
(0.0367025 0.01 0.0706315)
(0.0359449 0.01 0.0713891)
(0.0350804 0.01 0.0722536)
(0.0341425 0.01 0.0731915)
(0.033167 0.01 0.074167)
(0.0321915 0.01 0.0751425)
(0.0312536 0.01 0.0760804)
(0.0303891 0.01 0.0769448)
(0.0296315 0.01 0.0777025)
(0.0290096 0.01 0.0783243)
(0.0285476 0.01 0.0787864)
(0.0282631 0.01 0.0790709)
(0.004357 0.01 0.055357)
(0.00445307 0.01 0.0552609)
(0.0047376 0.01 0.0549764)
(0.00519965 0.01 0.0545143)
(0.00582147 0.01 0.0538925)
(0.00657915 0.01 0.0531348)
(0.00744358 0.01 0.0522704)
(0.00838155 0.01 0.0513325)
(0.009357 0.01 0.050357)
(0.0103325 0.01 0.0493815)
(0.0112704 0.01 0.0484436)
(0.0121349 0.01 0.0475791)
(0.0128925 0.01 0.0468215)
(0.0135144 0.01 0.0461996)
(0.0139764 0.01 0.0457376)
(0.0142609 0.01 0.0454531)
(0.014357 0.01 0.045357)
(0.0142609 0.01 0.0454531)
(0.0139764 0.01 0.0457376)
(0.0135144 0.01 0.0461996)
(0.0128925 0.01 0.0468215)
(0.0121349 0.01 0.0475791)
(0.0112704 0.01 0.0484436)
(0.0103325 0.01 0.0493815)
(0.009357 0.01 0.050357)
(0.00838155 0.01 0.0513325)
(0.00744358 0.01 0.0522704)
(0.00657915 0.01 0.0531348)
(0.00582147 0.01 0.0538925)
(0.00519965 0.01 0.0545143)
(0.0047376 0.01 0.0549764)
(0.00445307 0.01 0.0552609)
(-0.019452 0.01 0.031548)
(-0.0193559 0.01 0.0314519)
(-0.0190714 0.01 0.0311674)
(-0.0186094 0.01 0.0307053)
(-0.0179875 0.01 0.0300835)
(-0.0172299 0.01 0.0293258)
(-0.0163654 0.01 0.0284614)
(-0.0154275 0.01 0.0275235)
(-0.014452 0.01 0.026548)
(-0.0134765 0.01 0.0255725)
(-0.0125386 0.01 0.0246346)
(-0.0116741 0.01 0.0237701)
(-0.0109165 0.01 0.0230125)
(-0.0102947 0.01 0.0223906)
(-0.0098326 0.01 0.0219286)
(-0.00954807 0.01 0.0216441)
(-0.009452 0.01 0.021548)
(-0.00954807 0.01 0.0216441)
(-0.0098326 0.01 0.0219286)
(-0.0102947 0.01 0.0223906)
(-0.0109165 0.01 0.0230125)
(-0.0116741 0.01 0.0237701)
(-0.0125386 0.01 0.0246346)
(-0.0134765 0.01 0.0255725)
(-0.014452 0.01 0.026548)
(-0.0154275 0.01 0.0275235)
(-0.0163654 0.01 0.0284614)
(-0.0172299 0.01 0.0293258)
(-0.0179875 0.01 0.0300835)
(-0.0186094 0.01 0.0307053)
(-0.0190714 0.01 0.0311674)
(-0.0193559 0.01 0.0314519)
(-0.043262 0.01 0.007738)
(-0.0431659 0.01 0.00764193)
(-0.0428814 0.01 0.0073574)
(-0.0424194 0.01 0.00689535)
(-0.0417975 0.01 0.00627353)
(-0.0410399 0.01 0.00551585)
(-0.0401754 0.01 0.00465142)
(-0.0392375 0.01 0.00371345)
(-0.038262 0.01 0.002738)
(-0.0372865 0.01 0.00176255)
(-0.0363486 0.01 0.00082458)
(-0.0354842 0.01 -3.985e-05)
(-0.0347265 0.01 -0.00079753)
(-0.0341047 0.01 -0.00141935)
(-0.0336426 0.01 -0.0018814)
(-0.0333581 0.01 -0.00216593)
(-0.033262 0.01 -0.002262)
(-0.0333581 0.01 -0.00216593)
(-0.0336426 0.01 -0.0018814)
(-0.0341047 0.01 -0.00141935)
(-0.0347265 0.01 -0.00079753)
(-0.0354842 0.01 -3.985e-05)
(-0.0363486 0.01 0.00082458)
(-0.0372865 0.01 0.00176255)
(-0.038262 0.01 0.002738)
(-0.0392375 0.01 0.00371345)
(-0.0401754 0.01 0.00465142)
(-0.0410399 0.01 0.00551585)
(-0.0417975 0.01 0.00627353)
(-0.0424194 0.01 0.00689535)
(-0.0428814 0.01 0.0073574)
(-0.0431659 0.01 0.00764193)
(-0.067071 0.01 -0.016071)
(-0.0669749 0.01 -0.0161671)
(-0.0666904 0.01 -0.0164516)
(-0.0662283 0.01 -0.0169136)
(-0.0656065 0.01 -0.0175355)
(-0.0648488 0.01 -0.0182931)
(-0.0639844 0.01 -0.0191576)
(-0.0630465 0.01 -0.0200955)
(-0.062071 0.01 -0.021071)
(-0.0610955 0.01 -0.0220465)
(-0.0601576 0.01 -0.0229844)
(-0.0592931 0.01 -0.0238488)
(-0.0585355 0.01 -0.0246065)
(-0.0579136 0.01 -0.0252283)
(-0.0574516 0.01 -0.0256904)
(-0.0571671 0.01 -0.0259749)
(-0.057071 0.01 -0.026071)
(-0.0571671 0.01 -0.0259749)
(-0.0574516 0.01 -0.0256904)
(-0.0579136 0.01 -0.0252283)
(-0.0585355 0.01 -0.0246065)
(-0.0592931 0.01 -0.0238488)
(-0.0601576 0.01 -0.0229844)
(-0.0610955 0.01 -0.0220465)
(-0.062071 0.01 -0.021071)
(-0.0630465 0.01 -0.0200955)
(-0.0639844 0.01 -0.0191576)
(-0.0648488 0.01 -0.0182931)
(-0.0656065 0.01 -0.0175355)
(-0.0662283 0.01 -0.0169136)
(-0.0666904 0.01 -0.0164516)
(-0.0669749 0.01 -0.0161671)
(-0.090881 0.01 -0.039881)
(-0.0907849 0.01 -0.0399771)
(-0.0905004 0.01 -0.0402616)
(-0.0900383 0.01 -0.0407237)
(-0.0894165 0.01 -0.0413455)
(-0.0886588 0.01 -0.0421032)
(-0.0877944 0.01 -0.0429676)
(-0.0868565 0.01 -0.0439055)
(-0.085881 0.01 -0.044881)
(-0.0849055 0.01 -0.0458565)
(-0.0839676 0.01 -0.0467944)
(-0.0831031 0.01 -0.0476589)
(-0.0823455 0.01 -0.0484165)
(-0.0817236 0.01 -0.0490384)
(-0.0812616 0.01 -0.0495004)
(-0.0809771 0.01 -0.0497849)
(-0.080881 0.01 -0.049881)
(-0.0809771 0.01 -0.0497849)
(-0.0812616 0.01 -0.0495004)
(-0.0817236 0.01 -0.0490384)
(-0.0823455 0.01 -0.0484165)
(-0.0831031 0.01 -0.0476589)
(-0.0839676 0.01 -0.0467944)
(-0.0849055 0.01 -0.0458565)
(-0.085881 0.01 -0.044881)
(-0.0868565 0.01 -0.0439055)
(-0.0877944 0.01 -0.0429676)
(-0.0886588 0.01 -0.0421032)
(-0.0894165 0.01 -0.0413455)
(-0.0900383 0.01 -0.0407237)
(-0.0905004 0.01 -0.0402616)
(-0.0907849 0.01 -0.0399771)
(-0.11469 0.01 -0.06369)
(-0.114594 0.01 -0.0637861)
(-0.114309 0.01 -0.0640706)
(-0.113847 0.01 -0.0645326)
(-0.113226 0.01 -0.0651545)
(-0.112468 0.01 -0.0659121)
(-0.111603 0.01 -0.0667766)
(-0.110665 0.01 -0.0677145)
(-0.10969 0.01 -0.06869)
(-0.108715 0.01 -0.0696655)
(-0.107777 0.01 -0.0706034)
(-0.106912 0.01 -0.0714678)
(-0.106154 0.01 -0.0722255)
(-0.105533 0.01 -0.0728473)
(-0.105071 0.01 -0.0733094)
(-0.104786 0.01 -0.0735939)
(-0.10469 0.01 -0.07369)
(-0.104786 0.01 -0.0735939)
(-0.105071 0.01 -0.0733094)
(-0.105533 0.01 -0.0728473)
(-0.106154 0.01 -0.0722255)
(-0.106912 0.01 -0.0714678)
(-0.107777 0.01 -0.0706034)
(-0.108715 0.01 -0.0696655)
(-0.10969 0.01 -0.06869)
(-0.110665 0.01 -0.0677145)
(-0.111603 0.01 -0.0667766)
(-0.112468 0.01 -0.0659121)
(-0.113226 0.01 -0.0651545)
(-0.113847 0.01 -0.0645326)
(-0.114309 0.01 -0.0640706)
(-0.114594 0.01 -0.0637861)
(-0.1385 0.01 -0.0875)
(-0.138404 0.01 -0.0875961)
(-0.138119 0.01 -0.0878806)
(-0.137657 0.01 -0.0883427)
(-0.137036 0.01 -0.0889645)
(-0.136278 0.01 -0.0897222)
(-0.135413 0.01 -0.0905866)
(-0.134475 0.01 -0.0915245)
(-0.1335 0.01 -0.0925)
(-0.132525 0.01 -0.0934755)
(-0.131587 0.01 -0.0944134)
(-0.130722 0.01 -0.0952779)
(-0.129964 0.01 -0.0960355)
(-0.129343 0.01 -0.0966574)
(-0.128881 0.01 -0.0971194)
(-0.128596 0.01 -0.0974039)
(-0.1285 0.01 -0.0975)
(-0.128596 0.01 -0.0974039)
(-0.128881 0.01 -0.0971194)
(-0.129343 0.01 -0.0966574)
(-0.129964 0.01 -0.0960355)
(-0.130722 0.01 -0.0952779)
(-0.131587 0.01 -0.0944134)
(-0.132525 0.01 -0.0934755)
(-0.1335 0.01 -0.0925)
(-0.134475 0.01 -0.0915245)
(-0.135413 0.01 -0.0905866)
(-0.136278 0.01 -0.0897222)
(-0.137036 0.01 -0.0889645)
(-0.137657 0.01 -0.0883427)
(-0.138119 0.01 -0.0878806)
(-0.138404 0.01 -0.0875961)
)
;

boundaryField
{
    left_0
    {
        type            calculated;
    }
    left_1
    {
        type            calculated;
    }
    right_0
    {
        type            calculated;
    }
    right_1
    {
        type            calculated;
    }
    beam
    {
        type            empty;
    }
}


// ************************************************************************* //
