/*--------------------------------*- C++ -*----------------------------------*\
| =========                 |                                                 |
| \\      /  F ield         | foam-extend: Open Source CFD                    |
|  \\    /   O peration     | Version:     4.1                                |
|   \\  /    A nd           | Web:         http://www.foam-extend.org         |
|    \\/     M anipulation  |                                                 |
\*---------------------------------------------------------------------------*/
FoamFile
{
    version     2.0;
    format      ascii;
    class       surfaceVectorField;
    location    "0";
    object      refTangent;
}
// * * * * * * * * * * * * * * * * * * * * * * * * * * * * * * * * * * * * * //

dimensions      [0 0 0 0 0 0 0];

internalField   nonuniform List<vector> 
40
(
(1 0 0)
(1 0 0)
(1 0 0)
(1 0 0)
(1 0 0)
(1 0 0)
(1 0 0)
(1 0 0)
(1 0 0)
(1 0 0)
(1 0 0)
(1 0 0)
(1 0 0)
(1 0 0)
(1 0 0)
(1 0 0)
(1 0 0)
(1 0 0)
(1 0 0)
(1 0 0)
(6.12323e-17 0 -1)
(6.12323e-17 0 -1)
(6.12323e-17 0 -1)
(6.12323e-17 0 -1)
(6.12323e-17 0 -1)
(6.12323e-17 0 -1)
(6.12323e-17 0 -1)
(6.12323e-17 0 -1)
(6.12323e-17 0 -1)
(6.12323e-17 0 -1)
(6.12323e-17 0 -1)
(6.12323e-17 0 -1)
(6.12323e-17 0 -1)
(6.12323e-17 0 -1)
(6.12323e-17 0 -1)
(6.12323e-17 0 -1)
(6.12323e-17 0 -1)
(6.12323e-17 0 -1)
(6.12323e-17 0 -1)
(6.12323e-17 0 -1)
)
;

boundaryField
{
    left_0
    {
        type            calculated;
        value           uniform (1 0 0);
    }
    left_1
    {
        type            calculated;
        value           uniform (6.12323e-17 0 -1);
    }
    right_0
    {
        type            calculated;
        value           uniform (1 0 0);
    }
    right_1
    {
        type            calculated;
        value           uniform (6.12323e-17 0 -1);
    }
    beam
    {
        type            empty;
    }
}


// ************************************************************************* //
