/*--------------------------------*- C++ -*----------------------------------*\
| =========                 |                                                 |
| \\      /  F ield         | OpenFOAM: The Open Source CFD Toolbox           |
|  \\    /   O peration     | Version:  2312                                  |
|   \\  /    A nd           | Website:  www.openfoam.com                      |
|    \\/     M anipulation  |                                                 |
\*---------------------------------------------------------------------------*/
FoamFile
{
    version     2.0;
    format      ascii;
    arch        "LSB;label=32;scalar=64";
    class       surfaceVectorField;
    location    "0.25/beam";
    object      Gamma;
}
// * * * * * * * * * * * * * * * * * * * * * * * * * * * * * * * * * * * * * //

dimensions      [0 0 0 0 0 0 0];

oriented        oriented;

internalField   nonuniform List<vector> 
59
(
(0.005910509235 1.088072219e-16 7.996319587e-10)
(0.005910511171 1.074004063e-16 7.105612779e-10)
(0.005910514392 1.051077147e-16 5.698366804e-10)
(0.005910518895 1.020062012e-16 3.884858452e-10)
(0.005910524673 9.819978954e-17 1.812815802e-10)
(0.005910531717 9.381655541e-17 -3.292390789e-11)
(0.005910540015 8.900881548e-17 -2.317991779e-10)
(0.005910549556 8.394399823e-17 -3.920856846e-10)
(0.005910560324 7.880294355e-17 -4.880778089e-10)
(0.005910572302 7.377352372e-17 -4.936023703e-10)
(0.005910585471 6.904447067e-17 -3.84505294e-10)
(0.005910599809 6.47928948e-17 -1.376586236e-10)
(0.005910615294 6.118508259e-17 2.638129874e-10)
(0.005910631898 5.836612384e-17 8.330863572e-10)
(0.005910649593 5.645075725e-17 1.573343272e-09)
(0.005910668346 5.549918991e-17 2.479474427e-09)
(0.005910688125 5.554935463e-17 3.533558588e-09)
(0.005910708889 5.658237603e-17 4.705000029e-09)
(0.005910730598 5.849474745e-17 5.947777259e-09)
(0.005910753205 6.114366853e-17 7.20169217e-09)
(0.00591077666 6.43105388e-17 8.391241603e-09)
(0.005910800908 6.771497258e-17 9.425753989e-09)
(0.005910825887 7.103079886e-17 1.020604649e-08)
(0.005910851538 7.387152736e-17 1.062334279e-08)
(0.005910877781 7.583240546e-17 1.056881973e-08)
(0.005910904549 7.651119425e-17 9.939504478e-09)
(0.005910931748 7.551673408e-17 8.648278775e-09)
(0.005910959303 7.254035498e-17 6.632787209e-09)
(0.005910987108 6.741373916e-17 3.870309454e-09)
(0.005911015082 5.992473464e-17 3.828937197e-10)
(0.005911043115 5.027037485e-17 -3.744468633e-09)
(0.005911071125 3.886393582e-17 -8.368392513e-09)
(0.005911099008 2.610007124e-17 -1.327277747e-08)
(0.005911126692 1.271757362e-17 -1.818907617e-08)
(0.005911154094 -3.688864489e-19 -2.27957089e-08)
(0.005911181168 -1.221038264e-17 -2.675773455e-08)
(0.005911207862 -2.187008091e-17 -2.974698077e-08)
(0.005911234166 -2.858939068e-17 -3.149427104e-08)
(0.005911260065 -3.191346992e-17 -3.182534761e-08)
(0.005911285582 -3.182986161e-17 -3.070229066e-08)
(0.005911310732 -2.882853046e-17 -2.824649586e-08)
(0.005911335558 -2.389062448e-17 -2.472879326e-08)
(0.005911360084 -1.83296926e-17 -2.053895271e-08)
(0.005911384355 -1.351132003e-17 -1.609569304e-08)
(0.005911408385 -1.045920446e-17 -1.174549389e-08)
(0.005911432201 -9.386080163e-18 -7.632620452e-09)
(0.005911455802 -9.39068557e-18 -3.61636035e-09)
(0.005911479198 -8.399829559e-18 7.448121677e-10)
(0.005911502372 -3.605388666e-18 6.062734045e-09)
(0.005911525325 7.556067989e-18 1.285080295e-08)
(0.00591154803 2.591197912e-17 2.11164216e-08)
(0.005911570474 4.923178838e-17 3.001680047e-08)
(0.005911592612 7.173153666e-17 3.772891319e-08)
(0.005911614392 8.551203639e-17 4.189930817e-08)
(0.005911635714 8.409788461e-17 4.067112051e-08)
(0.005911656467 6.706505788e-17 3.401232752e-08)
(0.005911676494 4.097242368e-17 2.431310951e-08)
(0.005911695663 -7.458832465e-18 1.484262317e-08)
(0.005911713853 -3.76821975e-16 2.298443963e-09)
)
;

boundaryField
{
    left
    {
        type            calculated;
        value           uniform (-0.00591050859 -4.52815019e-14 -8.300672048e-10);
    }
    right
    {
        type            calculated;
        value           uniform (0.005911731013 -4.963818446e-14 -8.69900251e-08);
    }
    beam
    {
        type            empty;
        value           nonuniform List<vector> 0();
    }
}


// ************************************************************************* //
