/*--------------------------------*- C++ -*----------------------------------*\
| =========                 |                                                 |
| \\      /  F ield         | OpenFOAM: The Open Source CFD Toolbox           |
|  \\    /   O peration     | Version:  2312                                  |
|   \\  /    A nd           | Website:  www.openfoam.com                      |
|    \\/     M anipulation  |                                                 |
\*---------------------------------------------------------------------------*/
FoamFile
{
    version     2.0;
    format      ascii;
    arch        "LSB;label=32;scalar=64";
    class       surfaceVectorField;
    location    "0.25/beam";
    object      K;
}
// * * * * * * * * * * * * * * * * * * * * * * * * * * * * * * * * * * * * * //

dimensions      [0 -1 0 0 0 0 0];

oriented        oriented;

internalField   nonuniform List<vector> 
59
(
(-2.023213474e-17 9.072326052e-06 -1.21413929e-12)
(-4.045250923e-17 1.747953111e-05 -2.417797785e-12)
(-6.06460706e-17 2.460724823e-05 -3.600859834e-12)
(-8.079171574e-17 2.994164315e-05 -4.753887782e-12)
(-1.008598352e-16 3.311253561e-05 -5.868451462e-12)
(-1.208093724e-16 3.393695496e-05 -6.937419937e-12)
(-1.405861067e-16 3.246119411e-05 -7.955216997e-12)
(-1.601240775e-16 2.898537484e-05 -8.918055672e-12)
(-1.793426973e-16 2.408224526e-05 -9.824076821e-12)
(-1.981485072e-16 1.861337421e-05 -1.067346902e-11)
(-2.164391882e-16 1.372054391e-05 -1.146852904e-11)
(-2.341028174e-16 1.080878352e-05 -1.221358764e-11)
(-2.510276709e-16 1.150587515e-05 -1.291489118e-11)
(-2.670990953e-16 1.760694671e-05 -1.358041127e-11)
(-2.822129919e-16 3.099823121e-05 -1.421957135e-11)
(-2.962746303e-16 5.355528021e-05 -1.484276969e-11)
(-3.09210316e-16 8.702546257e-05 -1.546095344e-11)
(-3.209698163e-16 0.0001328860868 -1.608516956e-11)
(-3.315345395e-16 0.0001921879557 -1.672578142e-11)
(-3.40918379e-16 0.0002653905475 -1.739179194e-11)
(-3.491745976e-16 0.0003521978417 -1.809018673e-11)
(-3.564012721e-16 0.0004513857559 -1.882515148e-11)
(-3.627301485e-16 0.0005606790067 -1.959753675e-11)
(-3.683416816e-16 0.0006766447617 -2.040422383e-11)
(-3.734425667e-16 0.000794632248 -2.1237655e-11)
(-3.782705408e-16 0.0009088149795 -2.20857887e-11)
(-3.830702749e-16 0.001012307366 -2.293216179e-11)
(-3.880870403e-16 0.00109739204 -2.375644627e-11)
(-3.935298513e-16 0.001155877233 -2.453562375e-11)
(-3.995260388e-16 0.0011795676 -2.524455969e-11)
(-4.061415697e-16 0.001160863261 -2.585805572e-11)
(-4.133283774e-16 0.001093435664 -2.635429973e-11)
(-4.208052472e-16 0.0009729578053 -2.671596945e-11)
(-4.281531573e-16 0.0007978004684 -2.693206542e-11)
(-4.347563916e-16 0.0005696209474 -2.700078889e-11)
(-4.398624178e-16 0.0002937310212 -2.693071254e-11)
(-4.426192905e-16 -2.08636968e-05 -2.674091905e-11)
(-4.42201906e-16 -0.000361832736 -2.645992538e-11)
(-4.379288066e-16 -0.0007143742626 -2.612300914e-11)
(-4.293978517e-16 -0.001062506377 -2.576805882e-11)
(-4.166056775e-16 -0.001390709716 -2.543029542e-11)
(-3.999631968e-16 -0.001685650781 -2.513675782e-11)
(-3.802816541e-16 -0.001937673356 -2.490170736e-11)
(-3.585531099e-16 -0.00214162581 -2.472446792e-11)
(-3.357122299e-16 -0.002296618001 -2.459105874e-11)
(-3.122539974e-16 -0.002404495396 -2.448060843e-11)
(-2.880076022e-16 -0.002467123984 -2.437607073e-11)
(-2.620157105e-16 -0.002483127802 -2.427696358e-11)
(-2.328316854e-16 -0.002445261983 -2.420999661e-11)
(-1.991140305e-16 -0.002340009411 -2.423181112e-11)
(-1.606517742e-16 -0.00215094434 -2.44179595e-11)
(-1.191170559e-16 -0.001866284114 -2.483621416e-11)
(-7.843489277e-17 -0.001489090379 -2.550972002e-11)
(-4.381444535e-17 -0.001045690559 -2.638538559e-11)
(-1.978998066e-17 -0.0005858837505 -2.733000125e-11)
(-7.569181299e-18 -0.0001700108913 -2.817184844e-11)
(-3.735726941e-18 0.0001547149179 -2.877337773e-11)
(-1.981202302e-18 0.0003726550973 -2.896060037e-11)
(2.271277876e-18 0.0004682547117 -2.683409909e-11)
)
;

boundaryField
{
    left
    {
        type            calculated;
        value           uniform (-2.445122647e-32 -1.479758087e-32 -2.944169292e-33);
    }
    right
    {
        type            calculated;
        value           uniform (1.075222624e-32 1.685437906e-31 1.02493101e-32);
    }
    beam
    {
        type            empty;
        value           nonuniform List<vector> 0();
    }
}


// ************************************************************************* //
