/*--------------------------------*- C++ -*----------------------------------*\
| =========                 |                                                 |
| \\      /  F ield         | OpenFOAM: The Open Source CFD Toolbox           |
|  \\    /   O peration     | Version:  2312                                  |
|   \\  /    A nd           | Website:  www.openfoam.com                      |
|    \\/     M anipulation  |                                                 |
\*---------------------------------------------------------------------------*/
FoamFile
{
    version     2.0;
    format      ascii;
    arch        "LSB;label=32;scalar=64";
    class       surfaceVectorField;
    location    "0.25/beam";
    object      M;
}
// * * * * * * * * * * * * * * * * * * * * * * * * * * * * * * * * * * * * * //

dimensions      [1 2 -2 0 0 0 0];

oriented        oriented;

internalField   nonuniform List<vector> 
59
(
(-7.958895433e-17 5.472300062e-09 -7.280276007e-16)
(-1.584898168e-16 1.054340845e-08 -1.449769914e-15)
(-2.360386142e-16 1.484274763e-08 -2.159160653e-15)
(-3.116161616e-16 1.806037997e-08 -2.850540177e-15)
(-3.846697678e-16 1.997301791e-08 -3.518853107e-15)
(-4.547324106e-16 2.047029612e-08 -4.159823325e-15)
(-5.214394612e-16 1.958013783e-08 -4.770107228e-15)
(-5.84543925e-16 1.748357231e-08 -5.347434403e-15)
(-6.439253062e-16 1.452607319e-08 -5.890690774e-15)
(-6.995971683e-16 1.122732674e-08 -6.399990545e-15)
(-7.517107122e-16 8.276039997e-09 -6.876712504e-15)
(-8.005494804e-16 6.519706896e-09 -7.323455532e-15)
(-8.465211556e-16 6.940182809e-09 -7.743967606e-15)
(-8.901446782e-16 1.062026376e-08 -8.143031647e-15)
(-9.320320141e-16 1.869769909e-08 -8.526301477e-15)
(-9.728567405e-16 3.230379525e-08 -8.900015669e-15)
(-1.01332621e-15 5.249254066e-08 -9.270741968e-15)
(-1.054152502e-15 8.015502716e-08 -9.645107765e-15)
(-1.096001833e-15 1.159250843e-07 -1.002933005e-14)
(-1.139451361e-15 1.600798628e-07 -1.04288092e-14)
(-1.184947716e-15 2.124408073e-07 -1.084773466e-14)
(-1.232757781e-15 2.722695686e-07 -1.128861527e-14)
(-1.28293594e-15 3.381937273e-07 -1.175195784e-14)
(-1.335285158e-15 4.081426472e-07 -1.22358865e-14)
(-1.389328937e-15 4.793110471e-07 -1.273586064e-14)
(-1.444310803e-15 5.481844722e-07 -1.324464785e-14)
(-1.499200302e-15 6.106096309e-07 -1.375236115e-14)
(-1.552730504e-15 6.619315148e-07 -1.424679312e-14)
(-1.603474528e-15 6.972089646e-07 -1.471412062e-14)
(-1.649880802e-15 7.114986624e-07 -1.51392501e-14)
(-1.690402965e-15 7.002164668e-07 -1.550704957e-14)
(-1.723719283e-15 6.595450846e-07 -1.580441908e-14)
(-1.748795085e-15 5.868745268e-07 -1.602095453e-14)
(-1.764991157e-15 4.812220733e-07 -1.615004914e-14)
(-1.772239596e-15 3.435873808e-07 -1.619062127e-14)
(-1.771107877e-15 1.771744397e-07 -1.614781838e-14)
(-1.762797479e-15 -1.258468982e-08 -1.60331013e-14)
(-1.749067635e-15 -2.182524407e-07 -1.586359933e-14)
(-1.732061681e-15 -4.30900554e-07 -1.566050566e-14)
(-1.714045686e-15 -6.408889714e-07 -1.544658604e-14)
(-1.697083062e-15 -8.38856631e-07 -1.524300915e-14)
(-1.682701304e-15 -1.016760952e-06 -1.506603431e-14)
(-1.671622267e-15 -1.168777441e-06 -1.492425036e-14)
(-1.663646741e-15 -1.291798706e-06 -1.481727645e-14)
(-1.6577718e-15 -1.385287825e-06 -1.473674034e-14)
(-1.65259582e-15 -1.45035796e-06 -1.46701282e-14)
(-1.64697497e-15 -1.488134648e-06 -1.460721904e-14)
(-1.640788575e-15 -1.497787926e-06 -1.454773557e-14)
(-1.635565631e-15 -1.474947794e-06 -1.450772816e-14)
(-1.634633409e-15 -1.411460916e-06 -1.452122175e-14)
(-1.642452166e-15 -1.297419512e-06 -1.463359653e-14)
(-1.663040471e-15 -1.12571645e-06 -1.488555336e-14)
(-1.697834611e-15 -8.981984696e-07 -1.529097448e-14)
(-1.743886084e-15 -6.307459055e-07 -1.581792853e-14)
(-1.793687252e-15 -3.533968759e-07 -1.638633408e-14)
(-1.837612097e-15 -1.025481895e-07 -1.689295942e-14)
(-1.868039434e-15 9.332187247e-08 -1.72551062e-14)
(-1.874209542e-15 2.247803375e-07 -1.736835444e-14)
(-1.733099673e-15 2.824446865e-07 -1.609358353e-14)
)
;

boundaryField
{
    left
    {
        type            calculated;
        value           uniform (-2.951560342e-35 -8.925693617e-36 1.438491676e-36);
    }
    right
    {
        type            calculated;
        value           uniform (1.356257027e-35 1.016632718e-34 4.746345974e-36);
    }
    beam
    {
        type            empty;
        value           nonuniform List<vector> 0();
    }
}


// ************************************************************************* //
