/*--------------------------------*- C++ -*----------------------------------*\
| =========                 |                                                 |
| \\      /  F ield         | OpenFOAM: The Open Source CFD Toolbox           |
|  \\    /   O peration     | Version:  2312                                  |
|   \\  /    A nd           | Website:  www.openfoam.com                      |
|    \\/     M anipulation  |                                                 |
\*---------------------------------------------------------------------------*/
FoamFile
{
    version     2.0;
    format      ascii;
    arch        "LSB;label=32;scalar=64";
    class       pointVectorField;
    location    "0.25/beam";
    object      pointW;
}
// * * * * * * * * * * * * * * * * * * * * * * * * * * * * * * * * * * * * * //

dimensions      [0 1 0 0 0 0 0];

internalField   nonuniform List<vector> 
1952
(
(-0.0004344634833 -9.678976531e-15 2.366481405e-05)
(-0.0004261152674 -9.492948962e-15 2.321009465e-05)
(-0.0004013921229 -8.942282678e-15 2.186344841e-05)
(-0.0003612433524 -8.047815886e-15 1.967658294e-05)
(-0.0003072123875 -6.843917794e-15 1.673356751e-05)
(-0.0002413748774 -5.377209095e-15 1.314746075e-05)
(-0.0001662615719 -3.704068302e-15 9.05611021e-06)
(-8.475958955e-05 -1.888246504e-15 4.616774497e-06)
(1.437082314e-14 0 8.166389305e-15)
(8.475958958e-05 1.888246504e-15 -4.616774481e-06)
(0.000166261572 3.704068302e-15 -9.056110195e-06)
(0.0002413748774 5.377209095e-15 -1.314746073e-05)
(0.0003072123875 6.843917794e-15 -1.673356749e-05)
(0.0003612433524 8.047815886e-15 -1.967658293e-05)
(0.0004013921229 8.942282678e-15 -2.18634484e-05)
(0.0004261152674 9.492948962e-15 -2.321009465e-05)
(0.0004344634833 9.678976531e-15 -2.366481405e-05)
(0.0004261152674 9.492948962e-15 -2.321009465e-05)
(0.0004013921229 8.942282678e-15 -2.186344841e-05)
(0.0003612433524 8.047815886e-15 -1.967658294e-05)
(0.0003072123875 6.843917794e-15 -1.673356751e-05)
(0.0002413748774 5.377209095e-15 -1.314746075e-05)
(0.0001662615719 3.704068302e-15 -9.05611021e-06)
(8.475958955e-05 1.888246504e-15 -4.616774497e-06)
(-1.437078193e-14 0 -8.16639155e-15)
(-8.475958958e-05 -1.888246504e-15 4.616774481e-06)
(-0.000166261572 -3.704068302e-15 9.056110195e-06)
(-0.0002413748774 -5.377209095e-15 1.314746073e-05)
(-0.0003072123875 -6.843917794e-15 1.673356749e-05)
(-0.0003612433524 -8.047815886e-15 1.967658293e-05)
(-0.0004013921229 -8.942282678e-15 2.18634484e-05)
(-0.0004261152674 -9.492948962e-15 2.321009465e-05)
(-0.0004362651704 1.399122578e-13 -0.004813730627)
(-0.0004279169392 1.400982195e-13 -0.004814185348)
(-0.0004031937492 1.406489942e-13 -0.004815531999)
(-0.0003630449049 1.41543461e-13 -0.004817718873)
(-0.0003090138407 1.427473591e-13 -0.004820661899)
(-0.0002431762096 1.442140678e-13 -0.004824248019)
(-0.000168062766 1.458872086e-13 -0.004828339384)
(-8.656063386e-05 1.477030304e-13 -0.004832778737)
(-1.800888499e-06 1.495912769e-13 -0.004837395528)
(8.295885687e-05 1.514795234e-13 -0.00484201232)
(0.000164460989 1.532953452e-13 -0.004846451672)
(0.0002395744326 1.54968486e-13 -0.004850543037)
(0.0003054120637 1.564351947e-13 -0.004854129157)
(0.0003594431279 1.576390928e-13 -0.004857072184)
(0.0003995919722 1.585335595e-13 -0.004859259057)
(0.0004243151622 1.590841174e-13 -0.004860605709)
(0.0004326633933 1.592702153e-13 -0.00486106043)
(0.0004243151622 1.590841174e-13 -0.004860605709)
(0.0003995919722 1.585335595e-13 -0.004859259057)
(0.0003594431279 1.576390928e-13 -0.004857072184)
(0.0003054120637 1.564351947e-13 -0.004854129158)
(0.0002395744325 1.54968486e-13 -0.004850543037)
(0.000164460989 1.532953452e-13 -0.004846451672)
(8.295885684e-05 1.514795234e-13 -0.00484201232)
(-1.800888528e-06 1.495912769e-13 -0.004837395528)
(-8.656063389e-05 1.477030304e-13 -0.004832778737)
(-0.0001680627661 1.458872086e-13 -0.004828339385)
(-0.0002431762096 1.442140678e-13 -0.004824248019)
(-0.0003090138407 1.427473591e-13 -0.004820661899)
(-0.000363044905 1.41543461e-13 -0.004817718873)
(-0.0004031937492 1.406489942e-13 -0.004815531999)
(-0.0004279169392 1.400982195e-13 -0.004814185348)
(-0.0004380702444 2.861144754e-13 -0.009651143365)
(-0.0004297219683 2.863003888e-13 -0.009651598091)
(-0.0004049986454 2.868512719e-13 -0.009652944757)
(-0.0003648495851 2.877455219e-13 -0.009655131654)
(-0.0003108182302 2.889494199e-13 -0.009658074713)
(-0.0002449802449 2.904161286e-13 -0.009661660871)
(-0.0001698663973 2.920892694e-13 -0.009665752281)
(-8.836382673e-05 2.939046576e-13 -0.009670191681)
(-3.603625407e-06 2.957929041e-13 -0.009674808523)
(8.115657591e-05 2.976811506e-13 -0.009679425364)
(0.0001626591465 2.99497406e-13 -0.009683864764)
(0.0002377729941 3.011705468e-13 -0.009687956174)
(0.0003036109794 3.026372555e-13 -0.009691542333)
(0.0003576423343 3.038411536e-13 -0.009694485391)
(0.0003977913946 3.047358373e-13 -0.009696672288)
(0.0004225147175 3.052865035e-13 -0.009698018954)
(0.0004308629936 3.054724457e-13 -0.00969847368)
(0.0004225147175 3.052865035e-13 -0.009698018954)
(0.0003977913945 3.047358373e-13 -0.009696672288)
(0.0003576423343 3.038411536e-13 -0.009694485391)
(0.0003036109794 3.026372555e-13 -0.009691542333)
(0.0002377729941 3.011705468e-13 -0.009687956174)
(0.0001626591465 2.99497406e-13 -0.009683864764)
(8.115657589e-05 2.976811506e-13 -0.009679425364)
(-3.603625435e-06 2.957929041e-13 -0.009674808523)
(-8.836382675e-05 2.939046576e-13 -0.009670191681)
(-0.0001698663974 2.920892694e-13 -0.009665752281)
(-0.000244980245 2.904161286e-13 -0.009661660871)
(-0.0003108182302 2.889494199e-13 -0.009658074713)
(-0.0003648495851 2.877455219e-13 -0.009655131654)
(-0.0004049986454 2.868512719e-13 -0.009652944757)
(-0.0004297219684 2.863003888e-13 -0.009651598091)
(-0.0004398802458 4.275591334e-13 -0.01448858961)
(-0.0004315318986 4.277450789e-13 -0.01448904434)
(-0.0004068083648 4.282958536e-13 -0.01449039103)
(-0.0003666589621 4.291905373e-13 -0.01449257797)
(-0.0003126271465 4.303944354e-13 -0.01449552107)
(-0.0002467885998 4.318611441e-13 -0.01449910729)
(-0.0001716741117 4.335342849e-13 -0.01450319877)
(-9.017084609e-05 4.35349673e-13 -0.01450763825)
(-5.409921996e-06 4.372379195e-13 -0.01451225517)
(7.935100209e-05 4.39126166e-13 -0.01451687209)
(0.0001608542677 4.409424215e-13 -0.01452131157)
(0.0002359687558 4.426155623e-13 -0.01452540305)
(0.0003018073025 4.44082271e-13 -0.01452898927)
(0.0003558391181 4.45286169e-13 -0.01453193238)
(0.0003959885208 4.46180419e-13 -0.01453411931)
(0.0004207120545 4.467311937e-13 -0.014535466)
(0.0004290604018 4.469171228e-13 -0.01453592073)
(0.0004207120545 4.467311937e-13 -0.014535466)
(0.0003959885208 4.46180419e-13 -0.01453411931)
(0.0003558391181 4.45286169e-13 -0.01453193238)
(0.0003018073025 4.44082271e-13 -0.01452898927)
(0.0002359687558 4.426155623e-13 -0.01452540305)
(0.0001608542677 4.409424215e-13 -0.01452131157)
(7.935100207e-05 4.39126166e-13 -0.01451687209)
(-5.409922023e-06 4.372379195e-13 -0.01451225517)
(-9.017084611e-05 4.35349673e-13 -0.01450763825)
(-0.0001716741117 4.335342849e-13 -0.01450319877)
(-0.0002467885998 4.318611441e-13 -0.01449910729)
(-0.0003126271465 4.303944354e-13 -0.01449552107)
(-0.0003666589622 4.291905373e-13 -0.01449257797)
(-0.0004068083648 4.282958536e-13 -0.01449039103)
(-0.0004315318986 4.277450789e-13 -0.01448904434)
(-0.0004416963471 5.619179768e-13 -0.01932608312)
(-0.0004333479076 5.621038574e-13 -0.01932653786)
(-0.0004086241006 5.626547405e-13 -0.01932788458)
(-0.0003684742542 5.635492073e-13 -0.01933007156)
(-0.0003144418414 5.647531054e-13 -0.01933301474)
(-0.000248602567 5.662198141e-13 -0.01933660104)
(-0.0001734872487 5.678929549e-13 -0.01934069261)
(-9.198308233e-05 5.69708343e-13 -0.01934513218)
(-7.221221444e-06 5.715965895e-13 -0.0193497492)
(7.754063944e-05 5.73484836e-13 -0.01935436623)
(0.0001590448058 5.753010915e-13 -0.0193588058)
(0.0002341601241 5.769742323e-13 -0.01936289737)
(0.0002999993985 5.78440941e-13 -0.01936648367)
(0.0003540318113 5.796448391e-13 -0.01936942684)
(0.0003941816577 5.805393059e-13 -0.01937161383)
(0.0004189054647 5.810899721e-13 -0.01937296055)
(0.0004272539042 5.812759877e-13 -0.01937341529)
(0.0004189054647 5.810899721e-13 -0.01937296055)
(0.0003941816577 5.805393059e-13 -0.01937161383)
(0.0003540318113 5.796448391e-13 -0.01936942684)
(0.0002999993985 5.78440941e-13 -0.01936648367)
(0.0002341601241 5.769742323e-13 -0.01936289737)
(0.0001590448058 5.753010915e-13 -0.0193588058)
(7.754063942e-05 5.73484836e-13 -0.01935436623)
(-7.221221469e-06 5.715965895e-13 -0.0193497492)
(-9.198308236e-05 5.69708343e-13 -0.01934513218)
(-0.0001734872488 5.678929549e-13 -0.01934069261)
(-0.000248602567 5.662198141e-13 -0.01933660104)
(-0.0003144418414 5.647531054e-13 -0.01933301474)
(-0.0003684742542 5.635492073e-13 -0.01933007156)
(-0.0004086241006 5.626547405e-13 -0.01932788458)
(-0.0004333479076 5.621038574e-13 -0.01932653786)
(-0.0004435192663 6.869214894e-13 -0.02416363421)
(-0.0004351707201 6.87107489e-13 -0.02416408896)
(-0.0004104465972 6.876580468e-13 -0.02416543572)
(-0.000370296238 6.885529473e-13 -0.02416762275)
(-0.0003162631349 6.897568454e-13 -0.024170566)
(-0.0002504230195 6.912235541e-13 -0.0241741524)
(-0.0001753067416 6.928966949e-13 -0.02417824407)
(-9.380153402e-05 6.947125167e-13 -0.02418268376)
(-9.038590328e-06 6.966007632e-13 -0.0241873009)
(7.572435337e-05 6.984890097e-13 -0.02419191804)
(0.000157229561 7.003048315e-13 -0.02419635773)
(0.0002323458388 7.019779723e-13 -0.02420044941)
(0.0002981859543 7.03444681e-13 -0.0242040358)
(0.0003522190573 7.046485791e-13 -0.02420697905)
(0.0003923694166 7.055426122e-13 -0.02420916609)
(0.0004170935394 7.060936037e-13 -0.02421051284)
(0.0004254420856 7.062795199e-13 -0.02421096759)
(0.0004170935394 7.060936037e-13 -0.02421051284)
(0.0003923694166 7.055426122e-13 -0.02420916609)
(0.0003522190573 7.046485791e-13 -0.02420697905)
(0.0002981859542 7.03444681e-13 -0.0242040358)
(0.0002323458388 7.019779723e-13 -0.02420044941)
(0.0001572295609 7.003048315e-13 -0.02419635773)
(7.572435334e-05 6.984890097e-13 -0.02419191804)
(-9.038590351e-06 6.966007632e-13 -0.0241873009)
(-9.380153405e-05 6.947125167e-13 -0.02418268376)
(-0.0001753067416 6.928966949e-13 -0.02417824407)
(-0.0002504230195 6.912235541e-13 -0.0241741524)
(-0.0003162631349 6.897568454e-13 -0.024170566)
(-0.000370296238 6.885529473e-13 -0.02416762275)
(-0.0004104465973 6.876580468e-13 -0.02416543572)
(-0.0004351707201 6.87107489e-13 -0.02416408896)
(-0.0004453492201 8.003753812e-13 -0.02900124905)
(-0.0004370005605 8.005613316e-13 -0.02900170382)
(-0.0004122761018 8.011122148e-13 -0.02900305061)
(-0.0003721251971 8.020064647e-13 -0.02900523771)
(-0.00031809136 8.032103628e-13 -0.02900818104)
(-0.0002522503503 8.046770715e-13 -0.02901176753)
(-0.000177133052 8.063502123e-13 -0.02901585932)
(-9.562673728e-05 8.081660341e-13 -0.02902029913)
(-1.086264218e-05 8.100542806e-13 -0.02902491639)
(7.390145292e-05 8.119425271e-13 -0.02902953366)
(0.0001554077677 8.137583489e-13 -0.02903397347)
(0.0002305250659 8.154314897e-13 -0.02903806526)
(0.0002963660757 8.168981984e-13 -0.02904165175)
(0.0003503999127 8.181020965e-13 -0.02904459508)
(0.0003905508174 8.189967801e-13 -0.02904678217)
(0.0004152752761 8.195474464e-13 -0.02904812896)
(0.0004236239357 8.197334245e-13 -0.02904858373)
(0.0004152752761 8.195474464e-13 -0.02904812896)
(0.0003905508174 8.189967801e-13 -0.02904678217)
(0.0003503999127 8.181020965e-13 -0.02904459508)
(0.0002963660757 8.168981984e-13 -0.02904165175)
(0.0002305250659 8.154314897e-13 -0.02903806526)
(0.0001554077676 8.137583489e-13 -0.02903397347)
(7.39014529e-05 8.119425271e-13 -0.02902953366)
(-1.08626422e-05 8.100542806e-13 -0.02902491639)
(-9.56267373e-05 8.081660341e-13 -0.02902029913)
(-0.000177133052 8.063502123e-13 -0.02901585932)
(-0.0002522503503 8.046770715e-13 -0.02901176753)
(-0.0003180913601 8.032103628e-13 -0.02900818104)
(-0.0003721251971 8.020064647e-13 -0.02900523771)
(-0.0004122761018 8.011122148e-13 -0.02900305061)
(-0.0004370005605 8.005613316e-13 -0.02900170382)
(-0.0004471859238 9.001745273e-13 -0.03383892935)
(-0.0004388371519 9.003604069e-13 -0.03383938413)
(-0.0004141123606 9.0091129e-13 -0.03384073096)
(-0.0003739609158 9.018059736e-13 -0.03384291812)
(-0.0003199263518 9.030098717e-13 -0.03384586152)
(-0.0002540844563 9.044765804e-13 -0.03384944811)
(-0.0001789661475 9.061497212e-13 -0.03385354001)
(-9.745873632e-05 9.07965543e-13 -0.03385797994)
(-1.269350092e-05 9.098537895e-13 -0.03386259733)
(7.207173447e-05 9.11742036e-13 -0.03386721472)
(0.0001535791457 9.135578578e-13 -0.03387165465)
(0.0002286974544 9.152309986e-13 -0.03387574655)
(0.00029453935 9.166977073e-13 -0.03387933313)
(0.0003485739139 9.179016054e-13 -0.03388227654)
(0.0003887253587 9.187958554e-13 -0.0338844637)
(0.00041345015 9.193465217e-13 -0.03388581053)
(0.0004217989219 9.195325722e-13 -0.03388626531)
(0.00041345015 9.193465217e-13 -0.03388581053)
(0.0003887253587 9.187958554e-13 -0.0338844637)
(0.0003485739139 9.179016054e-13 -0.03388227654)
(0.00029453935 9.166977073e-13 -0.03387933313)
(0.0002286974544 9.152309986e-13 -0.03387574655)
(0.0001535791457 9.135578578e-13 -0.03387165465)
(7.207173446e-05 9.11742036e-13 -0.03386721472)
(-1.269350094e-05 9.098537895e-13 -0.03386259733)
(-9.745873634e-05 9.07965543e-13 -0.03385797994)
(-0.0001789661476 9.061497212e-13 -0.03385354001)
(-0.0002540844563 9.044765804e-13 -0.03384944811)
(-0.0003199263518 9.030098717e-13 -0.03384586152)
(-0.0003739609158 9.018059736e-13 -0.03384291812)
(-0.0004141123606 9.0091129e-13 -0.03384073096)
(-0.0004388371519 9.003604069e-13 -0.03383938413)
(-0.0004490286434 9.843138343e-13 -0.0386766724)
(-0.0004406797676 9.844998081e-13 -0.03867712719)
(-0.0004159546685 9.850505828e-13 -0.03867847405)
(-0.0003758027238 9.859452664e-13 -0.03868066126)
(-0.0003217674872 9.871491645e-13 -0.03868360474)
(-0.0002559247721 9.886158732e-13 -0.03868719142)
(-0.0001808055282 9.90289014e-13 -0.03869128342)
(-9.929710233e-05 9.921048358e-13 -0.03869572346)
(-1.453081172e-05 9.939930823e-13 -0.03870034097)
(7.023547888e-05 9.958813288e-13 -0.03870495847)
(0.0001517439047 9.976971506e-13 -0.03870939851)
(0.0002268631486 9.993702914e-13 -0.03871349051)
(0.0002927058638 1.000837e-12 -0.03871707719)
(0.0003467411004 1.002040898e-12 -0.03872002067)
(0.000386893045 1.002935148e-12 -0.03872220788)
(0.0004116181441 1.003485923e-12 -0.03872355474)
(0.0004199670199 1.003671866e-12 -0.03872400954)
(0.0004116181441 1.003485923e-12 -0.03872355474)
(0.000386893045 1.002935148e-12 -0.03872220788)
(0.0003467411004 1.002040898e-12 -0.03872002067)
(0.0002927058638 1.000837e-12 -0.03871707719)
(0.0002268631486 9.993702914e-13 -0.03871349051)
(0.0001517439047 9.976971506e-13 -0.03870939851)
(7.023547887e-05 9.958813288e-13 -0.03870495847)
(-1.453081174e-05 9.939930823e-13 -0.03870034097)
(-9.929710234e-05 9.921048358e-13 -0.03869572346)
(-0.0001808055282 9.90289014e-13 -0.03869128342)
(-0.0002559247721 9.886158732e-13 -0.03868719142)
(-0.0003217674872 9.871491645e-13 -0.03868360474)
(-0.0003758027238 9.859452664e-13 -0.03868066126)
(-0.0004159546685 9.850505828e-13 -0.03867847405)
(-0.0004406797676 9.844998081e-13 -0.03867712719)
(-0.0004508763088 1.050895655e-12 -0.0435144717)
(-0.0004425273432 1.051081639e-12 -0.0435149265)
(-0.0004178019783 1.051632306e-12 -0.04351627339)
(-0.000377649602 1.052526989e-12 -0.04351846065)
(-0.0003236137845 1.053730887e-12 -0.04352140419)
(-0.0002577703615 1.055197596e-12 -0.04352499094)
(-0.0001826503101 1.056870737e-12 -0.04352908303)
(-0.0001011410079 1.058686992e-12 -0.04353352317)
(-1.637380605e-05 1.060575239e-12 -0.04353814078)
(6.839339584e-05 1.062463485e-12 -0.04354275838)
(0.000149902698 1.064278873e-12 -0.04354719852)
(0.0002250227494 1.065952014e-12 -0.04355129061)
(0.0002908661724 1.067418723e-12 -0.04355487736)
(0.0003449019899 1.068622621e-12 -0.0435578209)
(0.0003850543662 1.069516871e-12 -0.04356000816)
(0.0004097797311 1.070067754e-12 -0.04356135505)
(0.0004181286967 1.070253656e-12 -0.04356180985)
(0.0004097797311 1.070067754e-12 -0.04356135505)
(0.0003850543662 1.069516871e-12 -0.04356000816)
(0.0003449019899 1.068622621e-12 -0.0435578209)
(0.0002908661724 1.067418723e-12 -0.04355487736)
(0.0002250227494 1.065952014e-12 -0.04355129061)
(0.0001499026979 1.064278873e-12 -0.04354719852)
(6.839339582e-05 1.062463485e-12 -0.04354275838)
(-1.637380607e-05 1.060575239e-12 -0.04353814078)
(-0.000101141008 1.058686992e-12 -0.04353352317)
(-0.0001826503101 1.056870737e-12 -0.04352908303)
(-0.0002577703615 1.055197596e-12 -0.04352499094)
(-0.0003236137845 1.053730887e-12 -0.04352140419)
(-0.000377649602 1.052526989e-12 -0.04351846065)
(-0.0004178019783 1.051632306e-12 -0.04351627339)
(-0.0004425273432 1.051081639e-12 -0.0435149265)
(-0.0004527276871 1.098133376e-12 -0.04835231808)
(-0.0004443786493 1.098319352e-12 -0.04835277289)
(-0.0004196530705 1.098870127e-12 -0.0483541198)
(-0.0003795003469 1.099764377e-12 -0.0483563071)
(-0.0003254640621 1.100968275e-12 -0.04835925069)
(-0.0002596200695 1.102434984e-12 -0.04836283751)
(-0.0001844993683 1.104108124e-12 -0.04836692967)
(-0.0001029893611 1.10592438e-12 -0.04837136988)
(-1.822142603e-05 1.107812626e-12 -0.04837598757)
(6.654650907e-05 1.109700873e-12 -0.04838060526)
(0.0001480565162 1.111516261e-12 -0.04838504547)
(0.0002231772174 1.113189402e-12 -0.04838913763)
(0.00028902121 1.11465611e-12 -0.04839272444)
(0.0003430574949 1.115860009e-12 -0.04839566804)
(0.0003832102185 1.116754692e-12 -0.04839785534)
(0.0004079357973 1.11730525e-12 -0.04839920225)
(0.0004162848351 1.117491326e-12 -0.04839965706)
(0.0004079357973 1.11730525e-12 -0.04839920225)
(0.0003832102185 1.116754692e-12 -0.04839785534)
(0.0003430574949 1.115860009e-12 -0.04839566804)
(0.00028902121 1.11465611e-12 -0.04839272444)
(0.0002231772174 1.113189402e-12 -0.04838913763)
(0.0001480565162 1.111516261e-12 -0.04838504547)
(6.654650906e-05 1.109700873e-12 -0.04838060526)
(-1.822142604e-05 1.107812626e-12 -0.04837598757)
(-0.0001029893611 1.10592438e-12 -0.04837136988)
(-0.0001844993683 1.104108124e-12 -0.04836692967)
(-0.0002596200695 1.102434984e-12 -0.04836283751)
(-0.0003254640621 1.100968275e-12 -0.04835925069)
(-0.000379500347 1.099764377e-12 -0.0483563071)
(-0.0004196530705 1.098870127e-12 -0.0483541198)
(-0.0004443786493 1.098319352e-12 -0.04835277289)
(-0.0004545816155 1.124350988e-12 -0.05319020139)
(-0.000446232523 1.124536987e-12 -0.0531906562)
(-0.0004215067823 1.125087653e-12 -0.05319200313)
(-0.0003813537957 1.12598212e-12 -0.05319419046)
(-0.0003273171568 1.127186018e-12 -0.05319713409)
(-0.000261472733 1.128652727e-12 -0.05320072096)
(-0.0001863515397 1.130325868e-12 -0.05320481317)
(-0.0001048409986 1.132141256e-12 -0.05320925344)
(-2.007250828e-05 1.134029502e-12 -0.05321387119)
(6.469598208e-05 1.135917749e-12 -0.05321848893)
(0.0001462065231 1.137734004e-12 -0.05322292921)
(0.0002213277164 1.139407145e-12 -0.05322702142)
(0.0002871721403 1.140873854e-12 -0.05323060828)
(0.0003412087791 1.142077752e-12 -0.05323355192)
(0.0003813617657 1.142972219e-12 -0.05323573924)
(0.0004060875064 1.143522885e-12 -0.05323708617)
(0.0004144365989 1.143708869e-12 -0.05323754099)
(0.0004060875064 1.143522885e-12 -0.05323708617)
(0.0003813617657 1.142972219e-12 -0.05323573924)
(0.0003412087791 1.142077752e-12 -0.05323355192)
(0.0002871721403 1.140873854e-12 -0.05323060828)
(0.0002213277164 1.139407145e-12 -0.05322702142)
(0.0001462065231 1.137734004e-12 -0.05322292921)
(6.469598207e-05 1.135917749e-12 -0.05321848893)
(-2.007250828e-05 1.134029502e-12 -0.05321387119)
(-0.0001048409986 1.132141256e-12 -0.05320925344)
(-0.0001863515397 1.130325868e-12 -0.05320481317)
(-0.000261472733 1.128652727e-12 -0.05320072096)
(-0.0003273171568 1.127186018e-12 -0.05319713409)
(-0.0003813537957 1.12598212e-12 -0.05319419046)
(-0.0004215067823 1.125087653e-12 -0.05319200313)
(-0.000446232523 1.124536987e-12 -0.0531906562)
(-0.0004564372945 1.127978632e-12 -0.05802811269)
(-0.0004480881605 1.128164619e-12 -0.05802856751)
(-0.0004233622969 1.128715394e-12 -0.05802991446)
(-0.0003832091107 1.129609861e-12 -0.05803210181)
(-0.0003291722033 1.130813759e-12 -0.05803504547)
(-0.0002633274522 1.132280467e-12 -0.05803863237)
(-0.0001882058856 1.133953608e-12 -0.05804272462)
(-0.0001066949394 1.13576943e-12 -0.05804716494)
(-2.192602775e-05 1.137657676e-12 -0.05805178273)
(6.284288391e-05 1.139545923e-12 -0.05805640053)
(0.0001443538301 1.141361745e-12 -0.05806084084)
(0.0002194753967 1.143034885e-12 -0.0580649331)
(0.0002853201478 1.144501594e-12 -0.05806851999)
(0.0003393570552 1.145705492e-12 -0.05807146366)
(0.0003795102414 1.146599525e-12 -0.05807365101)
(0.000404236105 1.147150517e-12 -0.05807499795)
(0.000412585239 1.147336424e-12 -0.05807545277)
(0.000404236105 1.147150517e-12 -0.05807499795)
(0.0003795102414 1.146599525e-12 -0.05807365101)
(0.0003393570552 1.145705492e-12 -0.05807146366)
(0.0002853201478 1.144501594e-12 -0.05806851999)
(0.0002194753967 1.143034885e-12 -0.0580649331)
(0.0001443538301 1.141361745e-12 -0.05806084084)
(6.284288391e-05 1.139545923e-12 -0.05805640053)
(-2.192602775e-05 1.137657676e-12 -0.05805178273)
(-0.0001066949394 1.13576943e-12 -0.05804716494)
(-0.0001882058856 1.133953608e-12 -0.05804272462)
(-0.0002633274522 1.132280467e-12 -0.05803863237)
(-0.0003291722033 1.130813759e-12 -0.05803504547)
(-0.0003832091107 1.129609861e-12 -0.05803210181)
(-0.0004233622969 1.128715394e-12 -0.05802991446)
(-0.0004480881605 1.128164619e-12 -0.05802856751)
(-0.0004582946273 1.107544116e-12 -0.06286604704)
(-0.0004499454555 1.107730119e-12 -0.06286650186)
(-0.0004252194801 1.108281002e-12 -0.06286784882)
(-0.0003850661125 1.109175252e-12 -0.06287003619)
(-0.0003310289608 1.11037915e-12 -0.06287297988)
(-0.0002651839121 1.111845858e-12 -0.06287656681)
(-0.0001900620058 1.113518999e-12 -0.0628806591)
(-0.0001085506912 1.115334387e-12 -0.06288509946)
(-2.378139636e-05 1.117222634e-12 -0.06288971729)
(6.098789849e-05 1.11911088e-12 -0.06289433513)
(0.0001424992131 1.120927136e-12 -0.06289877548)
(0.0002176211193 1.122600277e-12 -0.06290286777)
(0.0002834661681 1.124066985e-12 -0.06290645471)
(0.0003375033197 1.125270883e-12 -0.0629093984)
(0.0003776566874 1.126165133e-12 -0.06291158576)
(0.0004023826628 1.1267158e-12 -0.06291293272)
(0.0004107318346 1.1269018e-12 -0.06291338754)
(0.0004023826628 1.1267158e-12 -0.06291293272)
(0.0003776566874 1.126165133e-12 -0.06291158576)
(0.0003375033197 1.125270883e-12 -0.0629093984)
(0.0002834661681 1.124066985e-12 -0.06290645471)
(0.0002176211193 1.122600277e-12 -0.06290286777)
(0.0001424992131 1.120927136e-12 -0.06289877548)
(6.098789849e-05 1.11911088e-12 -0.06289433513)
(-2.378139635e-05 1.117222634e-12 -0.06288971729)
(-0.0001085506912 1.115334387e-12 -0.06288509946)
(-0.0001900620058 1.113518999e-12 -0.0628806591)
(-0.000265183912 1.111845858e-12 -0.06287656681)
(-0.0003310289608 1.11037915e-12 -0.06287297988)
(-0.0003850661125 1.109175252e-12 -0.06287003619)
(-0.0004252194801 1.108281002e-12 -0.06286784882)
(-0.0004499454555 1.107730119e-12 -0.06286650186)
(-0.0004601546026 1.061660668e-12 -0.06770400658)
(-0.0004518053816 1.061846574e-12 -0.06770446141)
(-0.0004270792604 1.062397566e-12 -0.06770580838)
(-0.0003869256559 1.063291816e-12 -0.06770799577)
(-0.0003328881855 1.064495714e-12 -0.0677109395)
(-0.0002670427484 1.065962422e-12 -0.06771452647)
(-0.0001919203991 1.067635563e-12 -0.06771861881)
(-0.0001104086037 1.069450951e-12 -0.06772305922)
(-2.563880888e-05 1.071339198e-12 -0.06772767711)
(5.913098594e-05 1.073227444e-12 -0.067732295)
(0.0001406427813 1.0750437e-12 -0.06773673541)
(0.0002157651306 1.076716841e-12 -0.06774082775)
(0.0002816105677 1.078183549e-12 -0.06774441472)
(0.0003356480381 1.079387447e-12 -0.06774735845)
(0.0003758016426 1.080281697e-12 -0.06774954584)
(0.0004005277639 1.080832255e-12 -0.06775089281)
(0.0004088769848 1.081018222e-12 -0.06775134764)
(0.0004005277639 1.080832255e-12 -0.06775089281)
(0.0003758016426 1.080281697e-12 -0.06774954584)
(0.0003356480381 1.079387447e-12 -0.06774735845)
(0.0002816105677 1.078183549e-12 -0.06774441472)
(0.0002157651306 1.076716841e-12 -0.06774082775)
(0.0001406427814 1.0750437e-12 -0.06773673541)
(5.913098595e-05 1.073227444e-12 -0.067732295)
(-2.563880888e-05 1.071339198e-12 -0.06772767711)
(-0.0001104086037 1.069450951e-12 -0.06772305922)
(-0.0001919203991 1.067635563e-12 -0.06771861881)
(-0.0002670427484 1.065962422e-12 -0.06771452647)
(-0.0003328881855 1.064495714e-12 -0.0677109395)
(-0.0003869256559 1.063291816e-12 -0.06770799577)
(-0.0004270792604 1.062397566e-12 -0.06770580838)
(-0.0004518053816 1.061846574e-12 -0.06770446141)
(-0.0004620196959 9.890113346e-13 -0.07254200407)
(-0.0004536703927 9.891973308e-13 -0.0725424589)
(-0.000428944028 9.897482139e-13 -0.0725438059)
(-0.0003887900282 9.906424639e-13 -0.07254599334)
(-0.0003347520257 9.918459283e-13 -0.07254893712)
(-0.0002689059403 9.93312637e-13 -0.07255252417)
(-0.0001937828513 9.949857778e-13 -0.07255661659)
(-0.0001122702533 9.968015996e-13 -0.07256105709)
(-2.749962383e-05 9.986898461e-13 -0.07256567507)
(5.727100566e-05 1.000578093e-12 -0.07257029305)
(0.0001387836036 1.002393914e-12 -0.07257473354)
(0.0002139066926 1.004067055e-12 -0.07257882596)
(0.000279752778 1.005533764e-12 -0.07258241301)
(0.0003337907805 1.006737228e-12 -0.07258535679)
(0.0003739447804 1.007631912e-12 -0.07258754423)
(0.0003986711451 1.008182795e-12 -0.07258889123)
(0.0004070204482 1.008368732e-12 -0.07258934607)
(0.0003986711451 1.008182795e-12 -0.07258889123)
(0.0003739447804 1.007631912e-12 -0.07258754423)
(0.0003337907805 1.006737228e-12 -0.07258535679)
(0.000279752778 1.005533764e-12 -0.07258241301)
(0.0002139066926 1.004067055e-12 -0.07257882596)
(0.0001387836037 1.002393914e-12 -0.07257473354)
(5.727100567e-05 1.000578093e-12 -0.07257029305)
(-2.749962382e-05 9.986898461e-13 -0.07256567507)
(-0.0001122702533 9.968015996e-13 -0.07256105709)
(-0.0001937828513 9.949857778e-13 -0.07255661659)
(-0.0002689059403 9.93312637e-13 -0.07255252417)
(-0.0003347520257 9.918459283e-13 -0.07254893712)
(-0.0003887900281 9.906424639e-13 -0.07254599334)
(-0.000428944028 9.897482139e-13 -0.0725438059)
(-0.0004536703927 9.891973308e-13 -0.0725424589)
(-0.000463894277 8.883306938e-13 -0.07738006652)
(-0.0004555448308 8.885166908e-13 -0.07738052137)
(-0.0004308180426 8.890674655e-13 -0.07738186841)
(-0.0003906633549 8.899617154e-13 -0.07738405593)
(-0.0003366244268 8.911651798e-13 -0.07738699981)
(-0.0002707772135 8.926318885e-13 -0.07739058698)
(-0.0001956528378 8.94305463e-13 -0.07739467954)
(-0.0001141388436 8.961208511e-13 -0.07739912019)
(-2.936676205e-05 8.980090976e-13 -0.07740373833)
(5.540531948e-05 8.998973441e-13 -0.07740835647)
(0.0001369193137 9.017127323e-13 -0.07741279712)
(0.0002120436895 9.033863067e-13 -0.07741688968)
(0.0002778909028 9.048530154e-13 -0.07742047685)
(0.0003319298308 9.060564798e-13 -0.07742342073)
(0.0003720845185 9.069511635e-13 -0.07742560824)
(0.0003968113067 9.075019382e-13 -0.07742695529)
(0.0004051607529 9.076878991e-13 -0.07742741014)
(0.0003968113067 9.075019382e-13 -0.07742695529)
(0.0003720845185 9.069511635e-13 -0.07742560824)
(0.0003319298308 9.060564798e-13 -0.07742342073)
(0.0002778909028 9.048530154e-13 -0.07742047685)
(0.0002120436895 9.033863067e-13 -0.07741688968)
(0.0001369193137 9.017127323e-13 -0.07741279712)
(5.54053195e-05 8.998973441e-13 -0.07740835647)
(-2.936676203e-05 8.980090976e-13 -0.07740373833)
(-0.0001141388436 8.961208511e-13 -0.07739912019)
(-0.0001956528378 8.94305463e-13 -0.07739467954)
(-0.0002707772135 8.926318885e-13 -0.07739058698)
(-0.0003366244268 8.911651798e-13 -0.07738699981)
(-0.0003906633549 8.899617154e-13 -0.07738405593)
(-0.0004308180426 8.890674655e-13 -0.07738186841)
(-0.0004555448308 8.885166908e-13 -0.07738052137)
(-0.0004657849924 7.583844751e-13 -0.0822182388)
(-0.0004574353085 7.585703983e-13 -0.08221869368)
(-0.000432707816 7.591210646e-13 -0.0822200408)
(-0.0003925519848 7.600153146e-13 -0.08222222844)
(-0.0003385115178 7.61218779e-13 -0.08222517249)
(-0.0002726624293 7.626854877e-13 -0.08222875987)
(-0.0001975359141 7.643590622e-13 -0.08223285266)
(-0.0001160195985 7.661744503e-13 -0.08223729356)
(-3.124510273e-05 7.680626968e-13 -0.08224191197)
(5.352939299e-05 7.699509433e-13 -0.08224653037)
(0.0001350457086 7.717663314e-13 -0.08225097127)
(0.0002101722238 7.734399059e-13 -0.08225506407)
(0.0002760213123 7.749066146e-13 -0.08225865144)
(0.0003300617794 7.76110079e-13 -0.08226159549)
(0.0003702176106 7.770047626e-13 -0.08226378313)
(0.000394945103 7.775554289e-13 -0.08226513025)
(0.000403294787 7.777414348e-13 -0.08226558513)
(0.000394945103 7.775554289e-13 -0.08226513025)
(0.0003702176106 7.770047626e-13 -0.08226378313)
(0.0003300617794 7.76110079e-13 -0.08226159549)
(0.0002760213124 7.749066146e-13 -0.08225865144)
(0.0002101722238 7.734399059e-13 -0.08225506407)
(0.0001350457086 7.717663314e-13 -0.08225097127)
(5.352939301e-05 7.699509433e-13 -0.08224653037)
(-3.124510271e-05 7.680626968e-13 -0.08224191197)
(-0.0001160195984 7.661744503e-13 -0.08223729356)
(-0.0001975359141 7.643590622e-13 -0.08223285266)
(-0.0002726624292 7.626854877e-13 -0.08222875987)
(-0.0003385115178 7.61218779e-13 -0.08222517249)
(-0.0003925519848 7.600153146e-13 -0.08222222844)
(-0.000432707816 7.591210646e-13 -0.0822200408)
(-0.0004574353085 7.585703983e-13 -0.08221869368)
(-0.0004677010981 5.979480795e-13 -0.08705658703)
(-0.0004593510422 5.981341724e-13 -0.08705704195)
(-0.0004346224482 5.986847303e-13 -0.08705838919)
(-0.0003944648281 5.995789802e-13 -0.08706057703)
(-0.0003404219537 6.007828783e-13 -0.08706352134)
(-0.0002745699317 6.02249587e-13 -0.08706710904)
(-0.0001994400697 6.039227278e-13 -0.0870712022)
(-0.0001179201227 6.057385496e-13 -0.0870756435)
(-3.314185044e-05 6.076267961e-13 -0.08708026231)
(5.163642184e-05 6.095150426e-13 -0.08708488113)
(0.0001331563689 6.11329997e-13 -0.08708932243)
(0.0002082862308 6.130031378e-13 -0.08709341559)
(0.0002741382528 6.144698465e-13 -0.08709700328)