/*--------------------------------*- C++ -*----------------------------------*\
| =========                 |                                                 |
| \\      /  F ield         | OpenFOAM: The Open Source CFD Toolbox           |
|  \\    /   O peration     | Version:  2312                                  |
|   \\  /    A nd           | Website:  www.openfoam.com                      |
|    \\/     M anipulation  |                                                 |
\*---------------------------------------------------------------------------*/
FoamFile
{
    version     2.0;
    format      ascii;
    arch        "LSB;label=32;scalar=64";
    class       surfaceVectorField;
    location    "0.25/beam";
    object      Q;
}
// * * * * * * * * * * * * * * * * * * * * * * * * * * * * * * * * * * * * * //

dimensions      [1 1 -2 0 0 0 0];

oriented        oriented;

internalField   nonuniform List<vector> 
59
(
(0.8860081436 2.977984552e-12 -0.0968073364)
(0.8860083753 2.90611163e-12 -0.09680790221)
(0.8860087656 2.787013081e-12 -0.09680880158)
(0.8860093207 2.621699386e-12 -0.09680997247)
(0.8860100483 2.411537822e-12 -0.09681133489)
(0.8860109569 2.158206524e-12 -0.09681279744)
(0.8860120553 1.863637469e-12 -0.09681426557)
(0.8860133511 1.529949951e-12 -0.09681565107)
(0.8860148499 1.159376402e-12 -0.09681688266)
(0.8860165538 7.541827941e-13 -0.09681791714)
(0.8860184603 3.165861263e-13 -0.09681875068)
(0.8860205612 -1.513281559e-13 -0.09681942975)
(0.886022841 -6.476857116e-13 -0.09682006087)
(0.886025277 -1.170896482e-12 -0.09682081858)
(0.8860278374 -1.719717972e-12 -0.09682195079)
(0.8860304823 -2.293305004e-12 -0.09682378064)
(0.886033163 -2.891242332e-12 -0.09682670405)
(0.8860358234 -3.513556625e-12 -0.0968311821)
(0.8860384011 -4.160704675e-12 -0.09683772762)
(0.8860408295 -4.833535232e-12 -0.09684688531)
(0.8860430408 -5.533222721e-12 -0.09685920523)
(0.8860449694 -6.261172237e-12 -0.09687520965)
(0.8860465561 -7.018809518e-12 -0.09689535137)
(0.8860477535 -7.807869536e-12 -0.09691998206)
(0.8860485296 -8.629261946e-12 -0.09694927627)
(0.8860488748 -9.484237368e-12 -0.09698322646)
(0.8860488058 -1.037272198e-11 -0.09702154475)
(0.8860483704 -1.129469364e-11 -0.09706368548)
(0.8860476508 -1.224843568e-11 -0.09710874891)
(0.8860467643 -1.323210629e-11 -0.09715554596)
(0.8860458641 -1.424198328e-11 -0.09720252753)
(0.8860451341 -1.527428582e-11 -0.09724790402)
(0.8860447838 -1.632348813e-11 -0.09728962534)
(0.8860450378 -1.738441425e-11 -0.09732555502)
(0.8860461231 -1.845066597e-11 -0.09735351546)
(0.886048255 -1.951692858e-11 -0.09737149171)
(0.8860516189 -2.057747445e-11 -0.09737773113)
(0.886056358 -2.162850204e-11 -0.0973709189)
(0.8860625539 -2.266656302e-11 -0.09735028752)
(0.8860702264 -2.369066387e-11 -0.09731568137)
(0.8860793198 -2.470040054e-11 -0.09726761152)
(0.8860897219 -2.569759125e-11 -0.09720714083)
(0.8861012606 -2.668401472e-11 -0.09713584912)
(0.886113741 -2.76626217e-11 -0.09705555228)
(0.886126945 -2.863513329e-11 -0.09696824164)
(0.8861406705 -2.960334549e-11 -0.09687578437)
(0.8861547155 -3.056725919e-11 -0.09678001274)
(0.8861688957 -3.152722567e-11 -0.09668261968)
(0.8861829984 -3.248313551e-11 -0.09658552849)
(0.8861967779 -3.343743156e-11 -0.09649099757)
(0.886209904 -3.439456032e-11 -0.09640203381)
(0.8862219845 -3.536312867e-11 -0.0963222441)
(0.8862325803 -3.635321056e-11 -0.09625562739)
(0.8862413138 -3.737550461e-11 -0.09620562111)
(0.8862479644 -3.843590364e-11 -0.09617414557)
(0.8862525766 -3.953430831e-11 -0.09616064963)
(0.8862554539 -4.066239292e-11 -0.09616212941)
(0.8862570507 -4.180885793e-11 -0.09617420891)
(0.8862577834 -4.296176366e-11 -0.09619288186)
)
;

boundaryField
{
    left
    {
        type            calculated;
        value           uniform (-0.8860080668 -9.813801799e-12 0.09680714332);
    }
    right
    {
        type            calculated;
        value           uniform (0.8862579056 -5.092235446e-11 -0.09621573476);
    }
    beam
    {
        type            empty;
        value           nonuniform List<vector> 0();
    }
}


// ************************************************************************* //
