/*--------------------------------*- C++ -*----------------------------------*\
| =========                 |                                                 |
| \\      /  F ield         | OpenFOAM: The Open Source CFD Toolbox           |
|  \\    /   O peration     | Version:  2312                                  |
|   \\  /    A nd           | Website:  www.openfoam.com                      |
|    \\/     M anipulation  |                                                 |
\*---------------------------------------------------------------------------*/
FoamFile
{
    version     2.0;
    format      ascii;
    arch        "LSB;label=32;scalar=64";
    class       volVectorField;
    location    "0.25/beam";
    object      Theta;
}
// * * * * * * * * * * * * * * * * * * * * * * * * * * * * * * * * * * * * * //

dimensions      [0 0 0 0 0 0 0];

internalField   nonuniform List<vector> 
60
(
(-1.09750924e-13 0.1087877616 3.142540381e-12)
(-1.064062174e-13 0.1087904541 3.090046852e-12)
(-9.973192311e-14 0.1087921479 2.984727559e-12)
(-8.97606199e-14 0.1087949777 2.827464356e-12)
(-7.654280458e-14 0.1087975528 2.619544238e-12)
(-6.014875114e-14 0.108800562 2.362615458e-12)
(-4.067093804e-14 0.1088034319 2.058631443e-12)
(-1.822717187e-14 0.1088063417 1.709780356e-12)
(7.03650818e-15 0.1088090346 1.318410593e-12)
(3.494206633e-14 0.1088115481 8.869436428e-13)
(6.527598339e-14 0.108813797 4.17784869e-13)
(9.778646312e-14 0.1088158427 -8.676485787e-14)
(1.321805448e-13 0.1088177514 -6.245997592e-13)
(1.681222272e-13 0.1088196958 -1.19389269e-12)
(2.052318376e-13 0.1088219074 -1.793168278e-12)
(2.430866389e-13 0.1088247137 -2.421364624e-12)
(2.81223407e-13 0.1088285177 -3.077869092e-12)
(3.191407077e-13 0.1088338041 -3.762562608e-12)
(3.563069854e-13 0.1088411207 -4.475783354e-12)
(3.921655878e-13 0.1088510631 -5.218323242e-12)
(4.261445858e-13 0.1088642464 -5.991353204e-12)
(4.576668044e-13 0.1088812731 -6.796330848e-12)
(4.861592439e-13 0.1089026902 -7.634830453e-12)
(5.110709254e-13 0.1089289474 -8.508573253e-12)
(5.318768081e-13 0.108960339 -9.418971189e-12)
(5.480933286e-13 0.1089969546 -1.036710889e-11)
(5.59291755e-13 0.1090386255 -1.135350572e-11)
(5.651044731e-13 0.1090848786 -1.237789577e-11)
(5.652371443e-13 0.1091348988 -1.34390992e-11)
(5.594720181e-13 0.1091875084 -1.453482964e-11)
(5.476833299e-13 0.109241167 -1.566164908e-11)
(5.298125193e-13 0.1092939974 -1.68150536e-11)
(5.059052794e-13 0.1093438424 -1.798945806e-11)
(4.760832607e-13 0.1093883533 -1.917845946e-11)
(4.405485162e-13 0.1094251091 -2.037520884e-11)
(3.995732976e-13 0.1094517622 -2.15727464e-11)
(3.534953292e-13 0.1094662003 -2.276451421e-11)
(3.027031498e-13 0.1094667098 -2.394481613e-11)
(2.476287133e-13 0.1094521228 -2.510926317e-11)
(1.887308273e-13 0.1094219271 -2.625507488e-11)
(1.264851799e-13 0.1093763177 -2.738121026e-11)
(6.136560572e-14 0.1093161773 -2.848824849e-11)
(-6.1699906e-15 0.1092429782 -2.957802122e-11)
(-7.570413915e-14 0.1091586211 -3.06530403e-11)
(-1.468828896e-13 0.1090652334 -3.17158014e-11)
(-2.194520574e-13 0.1089649844 -3.276818197e-11)
(-2.932932828e-13 0.1088599575 -3.381108284e-11)
(-3.684667297e-13 0.1087521606 -3.48445419e-11)
(-4.452352446e-13 0.1086436502 -3.586837608e-11)
(-5.240514201e-13 0.1085368245 -3.688323254e-11)
(-6.054406928e-13 0.1084346453 -3.78916349e-11)
(-6.897154976e-13 0.1083408595 -3.889830237e-11)
(-7.76401453e-13 0.1082596394 -3.990897166e-11)
(-8.633247924e-13 0.1081951825 -4.092701751e-11)
(-9.454300085e-13 0.1081502519 -4.194804137e-11)
(-1.013855112e-12 0.1081258551 -4.295382172e-11)
(-1.056747383e-12 0.1081195772 -4.390999848e-11)
(-1.066632298e-12 0.1081281675 -4.478846857e-11)
(-1.090196188e-12 0.1081455868 -4.577870335e-11)
(-1.857620467e-12 0.1081686096 -4.900773748e-11)
)
;

boundaryField
{
    left
    {
        type            momentBeamRotationNR;
        value           uniform (-1.09750924e-13 0.1087877616 3.142540381e-12);
        momentSeries    
{
        file            "$FOAM_CASE/constant/beam/timeVsMoment";
        outOfBounds     clamp;
}
        moment          uniform (0 0 0);
    }
    right
    {
        type            momentBeamRotationNR;
        value           uniform (-1.857620467e-12 0.1081686096 -4.900773748e-11);
        momentSeries    
{
        file            "$FOAM_CASE/constant/beam/timeVsMoment";
        outOfBounds     clamp;
}
        moment          uniform (0 0 0);
    }
    beam
    {
        type            empty;
    }
}


// ************************************************************************* //
