/*--------------------------------*- C++ -*----------------------------------*\
| =========                 |                                                 |
| \\      /  F ield         | OpenFOAM: The Open Source CFD Toolbox           |
|  \\    /   O peration     | Version:  2312                                  |
|   \\  /    A nd           | Website:  www.openfoam.com                      |
|    \\/     M anipulation  |                                                 |
\*---------------------------------------------------------------------------*/
FoamFile
{
    version     2.0;
    format      ascii;
    arch        "LSB;label=32;scalar=64";
    class       volVectorField;
    location    "0.25/beam";
    object      W;
}
// * * * * * * * * * * * * * * * * * * * * * * * * * * * * * * * * * * * * * //

dimensions      [0 1 0 0 0 0 0];

internalField   nonuniform List<vector> 
60
(
(-9.002089727e-07 7.559488852e-14 -0.00241869554)
(-2.701568054e-06 2.235875847e-13 -0.007256095516)
(-4.505682788e-06 3.679993365e-13 -0.01209352153)
(-6.314161232e-06 5.064769197e-13 -0.01693098881)
(-8.128281681e-06 6.367170448e-13 -0.02176850959)
(-9.948898998e-06 7.564839645e-13 -0.02660609221)
(-1.177638538e-05 8.636248412e-13 -0.03144374058)
(-1.361061649e-05 9.560822583e-13 -0.03628145408)
(-1.545100697e-05 1.031903442e-12 -0.04111922785)
(-1.729660515e-05 1.089245869e-12 -0.0459570537)
(-1.914624693e-05 1.126378833e-12 -0.05079492144)
(-2.099876963e-05 1.141681024e-12 -0.05563282093)
(-2.285328588e-05 1.133634032e-12 -0.06047074453)
(-2.470950683e-05 1.100811884e-12 -0.06530869005)
(-2.656811093e-05 1.041867006e-12 -0.07014666417)
(-2.843113672e-05 9.555130608e-13 -0.07498468597)
(-3.030238735e-05 8.405055322e-13 -0.07982279069)
(-3.218781809e-05 6.956203777e-13 -0.08466103324)
(-3.409588276e-05 5.196324163e-13 -0.08949949138)
(-3.603780496e-05 3.112944233e-13 -0.09433826817)
(-3.802774249e-05 6.931786993e-14 -0.09917749348)
(-4.008280678e-05 -2.076427891e-13 -0.1040173242)
(-4.22227815e-05 -5.209834821e-13 -0.1088576692)
(-4.44702242e-05 -8.722219868e-13 -0.1136992794)
(-4.684918461e-05 -1.262906757e-12 -0.1185421025)
(-4.938472808e-05 -1.694646355e-12 -0.1233863676)
(-5.210182573e-05 -2.169108742e-12 -0.1282323025)
(-5.502384095e-05 -2.687955281e-12 -0.1330801203)
(-5.817113675e-05 -3.25284388e-12 -0.1379300061)
(-6.15591705e-05 -3.865345363e-12 -0.1427821004)
(-6.519693504e-05 -4.526936943e-12 -0.147636484)
(-6.908502867e-05 -5.23891133e-12 -0.1524931615)
(-7.32143648e-05 -6.002375394e-12 -0.1573520488)
(-7.756478772e-05 -6.818162884e-12 -0.1622129615)
(-8.210462041e-05 -7.686854475e-12 -0.1670756101)
(-8.679047213e-05 -8.608718028e-12 -0.171939599)
(-9.156813331e-05 -9.58376298e-12 -0.1768044344)
(-9.637401857e-05 -1.061171966e-11 -0.1816695375)
(-0.0001011375355 -1.169213412e-11 -0.1865342657)
(-0.000105784041 -1.282438359e-11 -0.1913979394)
(-0.0001102381156 -1.400779577e-11 -0.1962598716)
(-0.000114427125 -1.524167449e-11 -0.2011193998)
(-0.0001182841431 -1.652540709e-11 -0.2059759127)
(-0.000121750702 -1.785845996e-11 -0.2108288748)
(-0.0001247780543 -1.924043665e-11 -0.2156778384)
(-0.0001273281784 -2.067101907e-11 -0.2205224527)
(-0.0001293732351 -2.214997723e-11 -0.2253624588)
(-0.0001308955791 -2.367708798e-11 -0.2301976907)
(-0.0001318872051 -2.525216125e-11 -0.2350280703)
(-0.0001323511052 -2.687502253e-11 -0.2398536198)
(-0.0001323029657 -2.854563863e-11 -0.2446744784)
(-0.0001317747793 -3.026420466e-11 -0.2494909354)
(-0.0001308173569 -3.203132907e-11 -0.2543034543)
(-0.0001295016159 -3.384808023e-11 -0.2591126844)
(-0.0001279150739 -3.571600183e-11 -0.2639194297)
(-0.0001261540353 -3.763688348e-11 -0.2687245761)
(-0.0001243117071 -3.961250665e-11 -0.2735289819)
(-0.0001224669195 -4.164428609e-11 -0.2783333732)
(-0.0001206774345 -4.37329727e-11 -0.283138282)
(-0.0001189766559 -4.587648461e-11 -0.2879440156)
)
;

boundaryField
{
    left
    {
        type            fixedValue;
        value           uniform (0 0 0);
    }
    right
    {
        type            fixedValue;
        value           uniform (-0.000118150922 -4.696274328e-11 -0.2903473852);
    }
    beam
    {
        type            empty;
    }
}


// ************************************************************************* //
