/*--------------------------------*- C++ -*----------------------------------*\
| =========                 |                                                 |
| \\      /  F ield         | OpenFOAM: The Open Source CFD Toolbox           |
|  \\    /   O peration     | Version:  2312                                  |
|   \\  /    A nd           | Website:  www.openfoam.com                      |
|    \\/     M anipulation  |                                                 |
\*---------------------------------------------------------------------------*/
FoamFile
{
    version     2.0;
    format      ascii;
    arch        "LSB;label=32;scalar=64";
    class       volScalarField;
    location    "0.07";
    object      p;
}
// * * * * * * * * * * * * * * * * * * * * * * * * * * * * * * * * * * * * * //

dimensions      [1 -1 -2 0 0 0 0];

internalField   nonuniform List<scalar> 
299556
(
19.37475255
19.37475769
19.37476285
19.37476807
19.37477335
19.37477872
19.3747842
19.3747898
19.37479556
19.37480147
19.37480758
19.37481389
19.37482042
19.37482719
19.37483422
19.37484152
19.37484912
19.37485703
19.37486527
19.37487384
19.37488276
19.37489205
19.37490171
19.37491175
19.37492217
19.37493298
19.37494419
19.37495578
19.37496775
19.37498009
19.37499279
19.37500583
19.37501919
19.37503284
19.37504675
19.37506089
19.3750752
19.37508965
19.37510418
19.37511873
19.37513323
19.37514762
19.37516183
19.37517577
19.37518937
19.37520254
19.37521518
19.37522722
19.37523857
19.37524912
19.37525881
19.37526753
19.37527521
19.37528178
19.37528716
19.37529129
19.37529412
19.37529559
19.37529567
19.37529434
19.37529156
19.37528735
19.37528169
19.37527461
19.37526612
19.37525627
19.37524508
19.37523261
19.3752189
19.37520403
19.37518806
19.37517104
19.37515306
19.37513419
19.37511449
19.37509404
19.3750729
19.37505115
19.37502885
19.37500606
19.37498284
19.37495925
19.37493534
19.37491115
19.37488673
19.37486212
19.37483736
19.37481249
19.37478753
19.37476253
19.37475762
19.37477294
19.37478835
19.3748039
19.37481966
19.37483568
19.37485202
19.37486874
19.3748859
19.37490356
19.37492177
19.37494059
19.37496007
19.37498027
19.37500124
19.37502304
19.37504571
19.37506931
19.37509387
19.37511945
19.37514607
19.37517378
19.37520259
19.37523254
19.37526364
19.3752959
19.37532933
19.3753639
19.37539962
19.37543645
19.37547434
19.37551325
19.37555312
19.37559385
19.37563536
19.37567754
19.37572026
19.37576338
19.37580673
19.37585015
19.37589345
19.3759364
19.37597881
19.37602043
19.37606101
19.37610031
19.37613807
19.37617401
19.37620787
19.37623939
19.3762683
19.37629435
19.37631729
19.3763369
19.37635297
19.37636531
19.37637375
19.37637815
19.3763784
19.37637441
19.37636614
19.37635356
19.37633668
19.37631554
19.37629022
19.37626079
19.3762274
19.37619017
19.37614927
19.37610488
19.3760572
19.37600642
19.37595276
19.37589642
19.37583763
19.37577659
19.37571351
19.37564861
19.37558206
19.37551405
19.37544477
19.37537437
19.37530301
19.37523083
19.37515797
19.37508454
19.37501066
19.37493644
19.37486198
19.37478737
19.37476264
19.37478805
19.3748136
19.3748394
19.37486554
19.37489211
19.37491922
19.37494696
19.37497542
19.3750047
19.37503491
19.37506612
19.37509843
19.37513194
19.37516673
19.37520288
19.37524049
19.37527963
19.37532038
19.3753628
19.37540696
19.37545292
19.37550072
19.3755504
19.37560199
19.3756555
19.37571095
19.37576831
19.37582756
19.37588865
19.37595152
19.37601607
19.37608221
19.37614979
19.37621866
19.37628864
19.37635952
19.37643106
19.376503
19.37657505
19.37664688
19.37671817
19.37678854
19.3768576
19.37692496
19.37699018
19.37705284
19.37711249
19.37716869
19.37722101
19.37726899
19.37731223
19.37735032
19.37738287
19.37740955
19.37743004
19.37744405
19.37745136
19.37745179
19.37744518
19.37743145
19.37741058
19.37738257
19.3773475
19.37730547
19.37725665
19.37720122
19.37713945
19.37707158
19.37699792
19.37691879
19.37683453
19.37674548
19.376652
19.37655445
19.37645317
19.37634851
19.37624081
19.3761304
19.37601757
19.37590262
19.37578582
19.37566743
19.37554768
19.37542679
19.37530498
19.37518241
19.37505929
19.37493576
19.37481199
19.37476758
19.37480292
19.37483847
19.37487435
19.37491071
19.37494767
19.37498537
19.37502396
19.37506355
19.37510428
19.37514629
19.37518971
19.37523465
19.37528126
19.37532966
19.37537995
19.37543227
19.37548671
19.37554339
19.3756024
19.37566383
19.37572776
19.37579426
19.37586337
19.37593514
19.37600959
19.37608673
19.37616653
19.37624896
19.37633395
19.37642142
19.37651124
19.37660326
19.3766973
19.37679313
19.37689051
19.37698914
19.37708869
19.3771888
19.37728907
19.37738904
19.37748826
19.3775862
19.37768233
19.37777608
19.37786687
19.37795409
19.37803713
19.37811538
19.37818821
19.37825502
19.37831522
19.37836826
19.37841359
19.37845075
19.37847928
19.3784988
19.37850899
19.3785096
19.37850042
19.37848133
19.37845228
19.37841331
19.37836449
19.37830599
19.37823804
19.3781609
19.37807492
19.37798046
19.37787794
19.37776781
19.37765054
19.37752661
19.37739651
19.37726074
19.3771198
19.37697416
19.37682429
19.37667064
19.37651364
19.37635369
19.37619117
19.37602644
19.37585982
19.37569163
19.37552213
19.37535161
19.3751803
19.37500844
19.37483625
19.37477241
19.37481747
19.37486279
19.37490854
19.37495489
19.37500201
19.37505008
19.37509927
19.37514975
19.37520168
19.37525524
19.3753106
19.3753679
19.37542733
19.37548903
19.37555315
19.37561986
19.37568928
19.37576154
19.37583679
19.37591512
19.37599663
19.37608142
19.37616954
19.37626106
19.376356
19.37645437
19.37655613
19.37666126
19.37676965
19.3768812
19.37699575
19.37711312
19.37723306
19.37735529
19.3774795
19.37760532
19.37773231
19.37786002
19.37798794
19.37811549
19.37824207
19.37836703
19.37848969
19.37860932
19.37872518
19.3788365
19.37894248
19.37904234
19.3791353
19.37922058
19.37929743
19.37936514
19.37942302
19.37947046
19.3795069
19.37953184
19.37954487
19.37954568
19.37953398
19.37950963
19.37947259
19.37942286
19.37936059
19.37928595
19.37919924
19.37910082
19.37899111
19.37887059
19.37873979
19.37859927
19.37844965
19.37829154
19.37812556
19.37795236
19.37777255
19.37758676
19.37739558
19.37719959
19.37699933
19.37679531
19.37658802
19.37637791
19.3761654
19.37595089
19.37573472
19.37551724
19.37529877
19.37507959
19.37485999
19.37477711
19.3748316
19.37488641
19.37494175
19.37499781
19.3750548
19.37511295
19.37517244
19.37523349
19.37529631
19.37536109
19.37542804
19.37549736
19.37556923
19.37564386
19.37572143
19.37580211
19.37588608
19.3759735
19.37606452
19.37615927
19.37625787
19.37636044
19.37646705
19.37657777
19.37669262
19.37681163
19.37693475
19.37706193
19.37719308
19.37732805
19.37746666
19.37760868
19.37775382
19.37790174
19.37805206
19.37820433
19.37835803
19.37851261
19.37866744
19.37882184
19.37897507
19.37912636
19.37927486
19.37941971
19.37955999
19.37969478
19.37982312
19.37994407
19.38005665
19.38015995
19.38025304
19.38033506
19.38040518
19.38046267
19.38050683
19.38053707
19.38055288
19.38055389
19.38053976
19.38051031
19.38046548
19.3804053
19.38032991
19.38023956
19.38013459
19.38001544
19.37988261
19.37973671
19.37957836
19.37940826
19.37922713
19.37903573
19.37883482
19.37862517
19.37840754
19.37818267
19.37795129
19.37771409
19.37747173
19.37722483
19.37697399
19.37671974
19.37646259
19.37620302
19.37594146
19.37567832
19.37541397
19.37514877
19.37488308
19.37478163
19.37484524
19.3749092
19.37497378
19.3750392
19.37510572
19.37517358
19.37524301
19.37531427
19.37538758
19.37546318
19.37554132
19.37562222
19.37570611
19.37579321
19.37588374
19.37597791
19.37607592
19.37617796
19.37628419
19.37639479
19.37650989
19.37662961
19.37675406
19.37688331
19.37701739
19.37715631
19.37730005
19.37744854
19.37760166
19.37775925
19.37792109
19.37808692
19.3782564
19.37842915
19.37860469
19.37878252
19.37896204
19.3791426
19.37932345
19.37950381
19.37968283
19.37985957
19.38003308
19.38020233
19.38036625
19.38052377
19.38067376
19.38081512
19.38094672
19.38106746
19.38117629
19.38127219
19.38135419
19.38142142
19.38147307
19.38150846
19.38152699
19.38152822
19.38151174
19.38147737
19.38142501
19.38135472
19.38126665
19.3811611
19.38103846
19.38089926
19.38074408
19.38057362
19.38038862
19.3801899
19.37997831
19.37975472
19.37952004
19.37927515
19.37902095
19.3787583
19.37848807
19.37821104
19.377928
19.37763968
19.37734675
19.37704986
19.3767496
19.37644651
19.37614111
19.37583386
19.37552522
19.37521559
19.37490537
19.37478597
19.37485828
19.37493101
19.37500443
19.37507882
19.37515445
19.37523161
19.37531055
19.37539157
19.37547492
19.37556089
19.37564974
19.37574172
19.37583711
19.37593615
19.3760391
19.37614618
19.37625762
19.37637365
19.37649446
19.37662023
19.37675112
19.37688728
19.37702881
19.3771758
19.3773283
19.37748631
19.3776498
19.3778187
19.37799288
19.37817214
19.37835626
19.37854491
19.37873773
19.37893427
19.37913401
19.37933637
19.37954065
19.37974612
19.37995195
19.38015724
19.380361
19.38056219
19.38075972
19.3809524
19.38113904
19.3813184
19.38148921
19.38165018
19.38180006
19.3819376
19.38206157
19.38217082
19.38226425
19.38234086
19.38239974
19.3824401
19.38246126
19.38246272
19.38244401
19.38240492
19.38234535
19.38226535
19.38216512
19.38204497
19.38190537
19.38174691
19.38157027
19.38137623
19.38116565
19.38093945
19.38069861
19.38044413
19.38017702
19.37989831
19.37960902
19.37931014
19.37900263
19.3786874
19.37836535
19.3780373
19.37770403
19.37736626
19.37702466
19.37667986
19.37633244
19.37598292
19.37563182
19.37527961
19.37492674
19.37479008
19.37487066
19.37495171
19.37503352
19.37511641
19.37520069
19.37528667
19.37537464
19.37546492
19.37555781
19.37565361
19.37575262
19.37585513
19.37596143
19.3760718
19.37618653
19.37630587
19.37643007
19.37655938
19.37669403
19.3768342
19.37698009
19.37713185
19.37728961
19.37745345
19.37762344
19.37779958
19.37798184
19.37817013
19.37836431
19.37856418
19.37876946
19.37897981
19.37919482
19.37941399
19.37963675
19.37986243
19.38009028
19.38031946
19.38054906
19.38077807
19.3810054
19.38122988
19.38145027
19.38166529
19.38187358
19.38207375
19.3822644
19.38244409
19.38261141
19.38276496
19.38290339
19.38302538
19.38312974
19.38321532
19.38328111
19.38332622
19.38334991
19.3833516
19.38333079
19.38328722
19.38322079
19.38313156
19.38301974
19.38288569
19.38272995
19.38255314
19.38235606
19.38213956
19.38190461
19.38165225
19.38138357
19.38109967
19.3808017
19.38049081
19.38016813
19.37983477
19.37949179
19.37914024
19.37878108
19.37841525
19.37804361
19.37766697
19.37728608
19.37690163
19.37651427
19.37612458
19.37573314
19.37534045
19.37494704
19.37479394
19.3748823
19.37497116
19.37506086
19.37515175
19.37524416
19.37533843
19.37543489
19.37553388
19.37563573
19.37574077
19.37584933
19.37596174
19.3760783
19.37619933
19.37632513
19.37645599
19.3765922
19.376734
19.37688166
19.37703538
19.37719538
19.37736182
19.37753484
19.37771454
19.37790098
19.37809418
19.3782941
19.37850065
19.37871366
19.37893293
19.37915814
19.37938893
19.37962484
19.37986533
19.38010977
19.38035743
19.38060749
19.38085903
19.38111105
19.38136243
19.38161199
19.38185844
19.38210042
19.38233652
19.38256525
19.38278509
19.38299448
19.38319186
19.38337566
19.38354435
19.38369644
19.3838305
19.38394519
19.38403926
19.3841116
19.38416123
19.38418732
19.38418926
19.38416647
19.38411869
19.3840458
19.38394786
19.38382511
19.38367796
19.38350697
19.38331286
19.38309648
19.3828588
19.38260087
19.38232382
19.38202887
19.38171723
19.38139016
19.38104892
19.38069476
19.38032888
19.37995248
19.37956669
19.37917257
19.37877115
19.37836337
19.37795012
19.37753222
19.37711043
19.37668546
19.37625795
19.37582852
19.37539773
19.37496615
19.37479754
19.37489312
19.37498925
19.37508629
19.37518462
19.37528459
19.37538657
19.37549092
19.37559801
19.3757082
19.37582184
19.37593928
19.37606089
19.376187
19.37631794
19.37645404
19.37659563
19.37674299
19.37689643
19.37705619
19.37722252
19.37739565
19.37757575
19.37776297
19.37795743
19.3781592
19.37836829
19.37858465
19.3788082
19.37903875
19.37927608
19.37951987
19.3797697
19.38002509
19.38028545
19.38055011
19.38081826
19.38108904
19.38136144
19.38163437
19.38190663
19.38217694
19.3824439
19.38270605
19.38296184
19.38320966
19.38344787
19.38367478
19.38388869
19.38408791
19.38427077
19.38443565
19.384581
19.38470536
19.38480739
19.38488587
19.38493974
19.38496811
19.38497029
19.38494567
19.38489397
19.38481506
19.384709
19.38457605
19.38441666
19.38423144
19.38402117
19.38378678
19.38352932
19.38324993
19.38294984
19.38263037
19.38229284
19.38193861
19.38156906
19.38118553
19.38078934
19.38038177
19.37996404
19.37953733
19.37910273
19.37866127
19.3782139
19.37776152
19.37730494
19.37684493
19.37638218
19.37591736
19.37545109
19.37498396
19.37480084
19.37490306
19.37500587
19.37510965
19.3752148
19.37532172
19.37543078
19.37554239
19.37565692
19.37577476
19.3758963
19.37602191
19.37615197
19.37628685
19.3764269
19.37657247
19.37672391
19.37688153
19.37704565
19.37721653
19.37739446
19.37757965
19.37777231
19.37797259
19.37818063
19.37839648
19.37862018
19.37885167
19.37909085
19.37933754
19.3795915
19.37985237
19.38011972
19.38039305
19.38067171
19.38095497
19.38124201
19.38153186
19.38182348
19.38211568
19.38240719
19.38269663
19.3829825
19.38326324
19.3835372
19.38380264
19.38405781
19.3843009
19.38453008
19.38474353
19.38493948
19.38511618
19.38527197
19.38540528
19.38551467
19.38559884
19.38565664
19.38568712
19.38568955
19.38566327
19.38560796
19.3855235
19.38540996
19.38526761
19.38509693
19.38489859
19.38467343
19.38442243
19.38414672
19.38384754
19.38352622
19.38318414
19.38282274
19.38244349
19.38204785
19.38163726
19.38121314
19.38077686
19.38032973
19.37987301
19.37940786
19.37893539
19.37845662
19.3779725
19.3774839
19.37699164
19.37649648
19.3759991
19.37550018
19.37500033
19.37480383
19.37491206
19.37502091
19.37513079
19.37524213
19.37535533
19.37547081
19.37558897
19.37571024
19.37583501
19.3759637
19.37609671
19.37623442
19.37637724
19.37652553
19.37667968
19.37684004
19.37700695
19.37718073
19.3773617
19.37755012
19.37774624
19.37795027
19.37816239
19.37838272
19.37861134
19.37884827
19.37909347
19.37934682
19.37960815
19.37987717
19.38015353
19.38043678
19.38072637
19.38102162
19.38132178
19.38162595
19.38193312
19.38224218
19.38255188
19.38286087
19.38316768
19.38347074
19.38376838
19.38405885
19.38434032
19.38461091
19.38486871
19.38511178
19.38533819
19.38554605
19.38573351
19.38589881
19.38604028
19.38615638
19.38624574
19.38630714
19.38633955
19.38634222
19.38631443
19.38625587
19.38616638
19.38604604
19.38589515
19.38571422
19.38550396
19.38526526
19.38499917
19.38470689
19.38438974
19.38404911
19.3836865
19.38330343
19.38290145
19.38248211
19.38204696
19.38159749
19.38113515
19.38066134
19.38017739
19.37968453
19.37918393
19.37867668
19.37816377
19.37764615
19.37712466
19.37660009
19.3760732
19.37554467
19.37501518
19.37480648
19.37492006
19.37503428
19.37514959
19.37526642
19.37538521
19.37550639
19.37563039
19.37575765
19.37588858
19.37602363
19.3761632
19.37630772
19.3764576
19.37661323
19.376775
19.37694329
19.37711846
19.37730085
19.37749078
19.37768853
19.37789438
19.37810853
19.37833117
19.37856244
19.37880242
19.37905113
19.37930853
19.3795745
19.37984885
19.38013129
19.38042145
19.38071886
19.38102293
19.38133297
19.38164817
19.3819676
19.38229021
19.38261482
19.38294013
19.38326471
19.38358702
19.38390541
19.38421813
19.38452333
19.38481911
19.38510347
19.38537441
19.38562989
19.38586788
19.38608639
19.38628348
19.38645728
19.38660604
19.38672815
19.38682216
19.38688678
19.38692095
19.38692383
19.38689472
19.38683325
19.38673928
19.38661288
19.38645438
19.38626431
19.38604341
19.38579263
19.38551308
19.38520601
19.38487282
19.38451498
19.38413405
19.38373165
19.3833094
19.38286894
19.38241189
19.38193981
19.38145425
19.38095667
19.38044845
19.3799309
19.37940525
19.37887262
19.37833409
19.37779061
19.37724308
19.37669235
19.37613917
19.37558429
19.3750284
19.37480879
19.37492701
19.3750459
19.37516592
19.37528753
19.37541117
19.37553731
19.37566638
19.37579884
19.37593513
19.3760757
19.37622099
19.37637142
19.37652743
19.37668943
19.37685783
19.37703302
19.37721537
19.37740524
19.37760296
19.37780883
19.37802313
19.37824608
19.37847788
19.37871866
19.37896852
19.37922748
19.37949549
19.37977243
19.38005811
19.38035223
19.3806544
19.38096412
19.38128081
19.38160372
19.38193202
19.38226475
19.38260081
19.38293897
19.38327787
19.38361603
19.38395186
19.38428362
19.38460948
19.38492754
19.38523579
19.38553217
19.38581458
19.3860809
19.386329
19.38655681
19.3867623
19.38694353
19.38709867
19.38722604
19.38732411
19.38739156
19.38742725
19.38743035
19.38740008
19.38733609
19.38723822
19.38710654
19.3869414
19.38674336
19.38651319
19.38625188
19.38596058
19.38564063
19.38529345
19.3849206
19.38452372
19.38410447
19.38366456
19.38320569
19.38272955
19.3822378
19.38173201
19.38121371
19.38068436
19.38014532
19.37959785
19.37904315
19.3784823
19.37791631
19.37734613
19.37677262
19.37619658
19.37561876
19.3750399
19.37481074
19.37493287
19.37505569
19.37517969
19.37530532
19.37543306
19.37556337
19.37569672
19.37583357
19.37597438
19.3761196
19.37626971
19.37642513
19.37658631
19.37675368
19.37692767
19.37710867
19.37729708
19.37749326
19.37769755
19.37791026
19.37813169
19.37836206
19.37860158
19.37885039
19.37910859
19.37937619
19.37965315
19.37993936
19.3802346
19.38053857
19.38085088
19.38117101
19.38149834
19.38183212
19.38217149
19.38251545
19.38286287
19.38321247
19.38356286
19.38391251
19.38425975
19.38460281
19.3849398
19.38526874
19.38558754
19.38589409
19.3861862
19.38646168
19.38671835
19.38695403
19.38716664
19.38735416
19.38751471
19.38764653
19.38774805
19.3878179
19.3878549
19.38785818
19.38782695
19.38776083
19.38765966
19.38752352
19.38735278
19.38714799
19.38690998
19.38663977
19.38633855
19.38600769
19.38564869
19.38526316
19.38485278
19.38441929
19.38396445
19.38349003
19.38299777
19.38248938
19.3819665
19.38143072
19.38088352
19.38032632
19.37976044
19.37918708
19.3786074
19.37802242
19.37743311
19.37684037
19.37624503
19.37564786
19.37504961
19.37481231
19.3749376
19.3750636
19.37519081
19.37531969
19.37545074
19.37558442
19.37572122
19.37586161
19.37600607
19.37615506
19.37630905
19.3764685
19.37663386
19.37680557
19.37698407
19.37716977
19.37736307
19.37756434
19.37777394
19.37799219
19.37821937
19.37845574
19.3787015
19.3789568
19.37922173
19.37949631
19.37978052
19.38007421
19.38037718
19.38068912
19.38100962
19.38133816
19.3816741
19.38201667
19.382365
19.38271804
19.38307465
19.38343351
19.3837932
19.38415214
19.38450863
19.38486084
19.38520684
19.38554457
19.38587193
19.38618671
19.38648668
19.3867696
19.3870332
19.38727526
19.38749365
19.38768627
19.3878512
19.38798664
19.38809096
19.38816276
19.38820082
19.38820426
19.38817224
19.3881044
19.38800057
19.38786083
19.38768554
19.3874753
19.38723094
19.38695352
19.38664426
19.38630458
19.38593601
19.38554021
19.38511891
19.38467389
19.38420697
19.38371996
19.38321466
19.38269281
19.38215611
19.38160618
19.38104455
19.38047266
19.37989188
19.37930345
19.37870853
19.3781082
19.37750343
19.37689515
19.3762842
19.37567138
19.37505746
19.3748135
19.37494117
19.37506958
19.37519921
19.37533055
19.37546409
19.37560033
19.37573973
19.3758828
19.37603001
19.37618184
19.37633877
19.37650126
19.37666978
19.37684477
19.37702668
19.37721593
19.37741293
19.37761805
19.37783166
19.37805409
19.37828563
19.37852653
19.378777
19.3790372
19.37930722
19.37958709
19.37987676
19.38017612
19.38048493
19.3808029
19.38112959
19.38146449
19.38180694
19.38215617
19.38251126
19.38287118
19.38323474
19.38360061
19.38396734
19.38433331
19.3846968
19.38505594
19.38540875
19.38575315
19.38608698
19.386408
19.38671393
19.38700247
19.38727132
19.38751823
19.38774099
19.38793748
19.38810574
19.38824391
19.38835036
19.38842364
19.38846251
19.38846606
19.38843347
19.38836433
19.38825848
19.38811601
19.38793728
19.38772291
19.38747375
19.38719087
19.38687553
19.38652917
19.38615335
19.38574978
19.38532021
19.38486646
19.3843904
19.38389387
19.38337869
19.38284666
19.3822995
19.38173886
19.38116632
19.38058333
19.37999128
19.37939145
19.37878501
19.37817306
19.3775566
19.37693656
19.37631381
19.37568916
19.37506339
19.37481429
19.37494357
19.37507358
19.37520484
19.37533783
19.37547304
19.37561098
19.37575214
19.375897
19.37604606
19.37619979
19.37635869
19.37652322
19.37669386
19.37687105
19.37705524
19.37724687
19.37744634
19.37765404
19.37787034
19.37809557
19.37833003
19.37857397
19.3788276
19.37909109
19.37936452
19.37964793
19.37994127
19.38024442
19.38055716
19.38087916
19.38121001
19.38154918
19.38189599
19.38224968
19.38260932
19.38297384
19.38334207
19.38371264
19.38408409
19.38445478
19.38482297
19.38518675
19.38554414
19.38589301
19.38623119
19.38655639
19.38686632
19.38715865
19.38743103
19.38768119
19.38790688
19.38810598
19.38827646
19.38841648
19.38852436
19.38859863
19.38863805
19.38864168
19.3886087
19.38853869
19.38843148
19.38828718
19.38810615
19.38788901
19.38763662
19.38735008
19.38703066
19.38667981
19.38629914
19.38589034
19.38545522
19.38499563
19.38451343
19.3840105
19.3834887
19.38294984
19.38239567
19.38182785
19.38124798
19.38065754
19.38005793
19.37945045
19.37883629
19.37821655
19.37759225
19.37696433
19.37633367
19.37570109
19.37506737
19.37481469
19.37494477
19.37507559
19.37520766
19.37534148
19.37547753
19.37561633
19.37575836
19.37590412
19.37605411
19.3762088
19.37636868
19.37653424
19.37670593
19.37688423
19.37706957
19.37726239
19.3774631
19.3776721
19.37788975
19.37811638
19.3783523
19.37859777
19.37885299
19.37911812
19.37939326
19.37967845
19.37997363
19.38027868
19.38059339
19.38091742
19.38125035
19.38159166
19.38194067
19.38229659
19.38265851
19.38302535
19.38339591
19.38376885
19.38414266
19.38451573
19.38488627
19.38525239
19.38561207
19.38596319
19.38630355
19.38663086
19.38694279
19.38723701
19.38751117
19.38776296
19.38799013
19.38819053
19.38836214
19.38850309
19.38861168
19.38868645
19.38872615
19.38872982
19.38869664
19.38862619
19.38851831
19.38837309
19.3881909
19.38797237
19.38771836
19.38742998
19.38710851
19.38675541
19.38637229
19.38596088
19.38552298
19.38506044
19.38457516
19.38406903
19.38354391
19.38300162
19.38244392
19.3818725
19.38128895
19.38069478
19.38009138
19.37948006
19.37886202
19.37823837
19.37761014
19.37697826
19.37634363
19.37570707
19.37506937
19.37481469
19.37494477
19.37507559
19.37520766
19.37534148
19.37547753
19.37561633
19.37575836
19.37590412
19.37605411
19.3762088
19.37636868
19.37653424
19.37670593
19.37688423
19.37706957
19.37726239
19.3774631
19.3776721
19.37788975
19.37811638
19.3783523
19.37859777
19.37885299
19.37911812
19.37939326
19.37967845
19.37997363
19.38027869
19.38059339
19.38091742
19.38125035
19.38159166
19.38194067
19.38229659
19.38265851
19.38302535
19.38339591
19.38376885
19.38414266
19.38451573
19.38488627
19.38525238
19.38561207
19.38596319
19.38630354
19.38663085
19.38694279
19.38723701
19.38751117
19.38776295
19.38799012
19.38819053
19.38836214
19.38850308
19.38861168
19.38868645
19.38872614
19.38872982
19.38869663
19.38862619
19.38851831
19.38837309
19.3881909
19.38797237
19.38771837
19.38742998
19.38710851
19.38675541
19.3863723
19.38596088
19.38552298
19.38506044
19.38457516
19.38406903
19.38354391
19.38300162
19.38244392
19.3818725
19.38128895
19.38069478
19.38009138
19.37948006
19.37886202
19.37823837
19.37761014
19.37697826
19.37634363
19.37570707
19.37506937
19.37481429
19.37494357
19.37507358
19.37520484
19.37533783
19.37547304
19.37561099
19.37575214
19.375897
19.37604606
19.3761998
19.37635869
19.37652322
19.37669386
19.37687105
19.37705524
19.37724687
19.37744634
19.37765404
19.37787034
19.37809557
19.37833003
19.37857397
19.3788276
19.37909109
19.37936452
19.37964793
19.37994128
19.38024442
19.38055716
19.38087916
19.38121001
19.38154918
19.38189599
19.38224968
19.38260931
19.38297384
19.38334206
19.38371264
19.38408409
19.38445478
19.38482296
19.38518675
19.38554413
19.38589301
19.38623118
19.38655639
19.38686632
19.38715864
19.38743102
19.38768117
19.38790687
19.38810596
19.38827645
19.38841647
19.38852435
19.38859862
19.38863804
19.38864168
19.38860869
19.38853868
19.38843148
19.38828718
19.38810615
19.38788901
19.38763663
19.38735008
19.38703066
19.38667981
19.38629914
19.38589034
19.38545522
19.38499563
19.38451343
19.3840105
19.3834887
19.38294984
19.38239567
19.38182785
19.38124798
19.38065754
19.38005794
19.37945045
19.37883629
19.37821655
19.37759225
19.37696433
19.37633367
19.37570109
19.37506737
19.3748135
19.37494117
19.37506958
19.37519921
19.37533055
19.3754641
19.37560033
19.37573974
19.3758828
19.37603001
19.37618185
19.37633877
19.37650127
19.37666978
19.37684478
19.37702669
19.37721593
19.37741293
19.37761805
19.37783166
19.37805409
19.37828563
19.37852653
19.378777
19.3790372
19.37930722
19.37958709
19.37987677
19.38017612
19.38048493
19.3808029
19.38112959
19.38146449
19.38180694
19.38215617
19.38251126
19.38287118
19.38323473
19.38360061
19.38396733
19.38433331
19.38469679
19.38505593
19.38540873
19.38575314
19.38608696
19.38640798
19.38671391
19.38700245
19.38727131
19.38751821
19.38774097
19.38793746
19.38810572
19.3882439
19.38835035
19.38842362
19.3884625
19.38846605
19.38843346
19.38836432
19.38825847
19.38811601
19.38793728
19.38772292
19.38747376
19.38719087
19.38687553
19.38652917
19.38615336
19.38574978
19.38532021
19.38486647
19.3843904
19.38389387
19.38337869
19.38284666
19.3822995
19.38173887
19.38116632
19.38058333
19.37999128
19.37939145
19.37878501
19.37817306
19.3775566
19.37693656
19.37631381
19.37568916
19.37506339
19.37481231
19.3749376
19.3750636
19.37519081
19.3753197
19.37545074
19.37558443
19.37572123
19.37586162
19.37600607
19.37615506
19.37630905
19.3764685
19.37663386
19.37680558
19.37698407
19.37716977
19.37736307
19.37756434
19.37777394
19.37799219
19.37821938
19.37845575
19.3787015
19.3789568
19.37922173
19.37949632
19.37978052
19.38007421
19.38037718
19.38068912
19.38100962
19.38133816
19.3816741
19.38201667
19.38236499
19.38271804
19.38307464
19.38343351
19.38379319
19.38415213
19.38450862
19.38486083
19.38520682
19.38554455
19.38587191
19.38618669
19.38648666
19.38676957
19.38703317
19.38727524
19.38749362
19.38768625
19.38785118
19.38798662
19.38809094
19.38816274
19.38820081
19.38820424
19.38817223
19.3881044
19.38800057
19.38786083
19.38768554
19.3874753
19.38723095
19.38695353
19.38664427
19.38630459
19.38593602
19.38554022
19.38511891
19.38467389
19.38420697
19.38371996
19.38321466
19.38269281
19.38215611
19.38160618
19.38104455
19.38047267
19.37989188
19.37930345
19.37870854
19.3781082
19.37750343
19.37689515
19.3762842
19.37567138
19.37505746
19.37481074
19.37493287
19.37505569
19.37517969
19.37530533
19.37543307
19.37556338
19.37569672
19.37583357
19.37597438
19.37611961
19.37626971
19.37642513
19.37658631
19.37675369
19.37692767
19.37710868
19.37729708
19.37749326
19.37769755
19.37791027
19.37813169
19.37836207
19.37860159
19.3788504
19.37910859
19.37937619
19.37965316
19.37993936
19.3802346
19.38053858
19.38085088
19.38117101
19.38149833
19.38183212
19.38217149
19.38251545
19.38286286
19.38321246
19.38356285
19.3839125
19.38425974
19.3846028
19.38493979
19.38526871
19.38558752
19.38589406
19.38618617
19.38646165
19.38671832
19.386954
19.38716661
19.38735413
19.38751468
19.3876465
19.38774803
19.38781788
19.38785488
19.38785816
19.38782693
19.38776082
19.38765965
19.38752352
19.38735278
19.38714799
19.38690999
19.38663977
19.38633855
19.38600769
19.3856487
19.38526316
19.38485278
19.38441929
19.38396445
19.38349003
19.38299777
19.38248938
19.3819665
19.38143072
19.38088353
19.38032633
19.37976044
19.37918709
19.3786074
19.37802242
19.37743312
19.37684038
19.37624503
19.37564786
19.37504961
19.37480879
19.37492701
19.3750459
19.37516592
19.37528753
19.37541118
19.37553731
19.37566638
19.37579884
19.37593514
19.37607571
19.37622099
19.37637143
19.37652744
19.37668944
19.37685784
19.37703303
19.37721538
19.37740525
19.37760297
19.37780884
19.37802313
19.37824609
19.37847788
19.37871867
19.37896853
19.37922748
19.37949549
19.37977244
19.38005811
19.38035223
19.3806544
19.38096412
19.3812808
19.38160372
19.38193202
19.38226475
19.3826008
19.38293896
19.38327786
19.38361602
19.38395184
19.3842836
19.38460946
19.38492752
19.38523577
19.38553215
19.38581455
19.38608086
19.38632897
19.38655678
19.38676226
19.38694349
19.38709864
19.38722601
19.38732408
19.38739153
19.38742723
19.38743033
19.38740006
19.38733608
19.38723821
19.38710654
19.3869414
19.38674336
19.38651319
19.38625188
19.38596059
19.38564063
19.38529346
19.38492061
19.38452372
19.38410447
19.38366456
19.38320569
19.38272956
19.3822378
19.38173201
19.38121372
19.38068437
19.38014532
19.37959786
19.37904315
19.3784823
19.37791632
19.37734614
19.37677262
19.37619658
19.37561876
19.3750399
19.37480649
19.37492006
19.37503428
19.37514959
19.37526642
19.37538521
19.37550639
19.37563039
19.37575765
19.37588859
19.37602363
19.37616321
19.37630773
19.3764576
19.37661323
19.376775
19.37694329
19.37711847
19.37730086
19.37749078
19.37768854
19.37789438
19.37810853
19.37833118
19.37856245
19.37880243
19.37905114
19.37930853
19.3795745
19.37984885
19.38013129
19.38042145
19.38071885
19.38102292
19.38133296
19.38164816
19.38196759
19.3822902
19.38261481
19.38294011
19.38326469
19.383587
19.38390539
19.3842181
19.38452331
19.38481908
19.38510344
19.38537438
19.38562985
19.38586785
19.38608636
19.38628344
19.38645724
19.386606
19.38672812
19.38682213
19.38688675
19.38692092
19.38692381
19.3868947
19.38683323
19.38673927
19.38661287
19.38645437
19.3862643
19.38604341
19.38579263
19.38551308
19.38520601
19.38487282
19.38451498
19.38413406
19.38373165
19.38330941
19.38286895
19.38241189
19.38193982
19.38145426
19.38095667
19.38044845
19.3799309
19.37940525
19.37887263
19.37833409
19.37779061
19.37724309
19.37669235
19.37613917
19.37558429
19.3750284
19.37480383
19.37491206
19.37502091
19.3751308
19.37524213
19.37535533
19.37547081
19.37558898
19.37571024
19.37583502
19.37596371
19.37609671
19.37623443
19.37637724
19.37652554
19.37667968