/*--------------------------------*- C++ -*----------------------------------*\
| =========                 |                                                 |
| \\      /  F ield         | foam-extend: Open Source CFD                    |
|  \\    /   O peration     | Version:     4.1                                |
|   \\  /    A nd           | Web:         http://www.foam-extend.org         |
|    \\/     M anipulation  |                                                 |
\*---------------------------------------------------------------------------*/
FoamFile
{
    version     2.0;
    format      ascii;
    class       pointVectorField;
    location    "0";
    object      pointW;
}
// * * * * * * * * * * * * * * * * * * * * * * * * * * * * * * * * * * * * * //

dimensions      [0 1 0 0 0 0 0];

internalField   nonuniform List<vector> 
3328
(
(-6.05257e-19 6.1939e-19 0)
(0.0019509 0.0019509 0)
(0.00382683 0.00382683 0)
(0.0055557 0.0055557 0)
(0.00707107 0.00707107 0)
(0.0083147 0.0083147 0)
(0.0092388 0.0092388 0)
(0.00980785 0.00980785 0)
(0.01 0.01 0)
(0.00980785 0.00980785 0)
(0.0092388 0.0092388 0)
(0.0083147 0.0083147 0)
(0.00707107 0.00707107 0)
(0.0055557 0.0055557 0)
(0.00382683 0.00382683 0)
(0.0019509 0.0019509 0)
(1.84404e-18 6.19393e-19 0)
(-0.0019509 -0.0019509 0)
(-0.00382683 -0.00382683 0)
(-0.0055557 -0.0055557 0)
(-0.00707107 -0.00707107 0)
(-0.0083147 -0.0083147 0)
(-0.0092388 -0.0092388 0)
(-0.00980785 -0.00980785 0)
(-0.01 -0.01 0)
(-0.00980785 -0.00980785 0)
(-0.0092388 -0.0092388 0)
(-0.0083147 -0.0083147 0)
(-0.00707107 -0.00707107 0)
(-0.0055557 -0.0055557 0)
(-0.00382683 -0.00382683 0)
(-0.0019509 -0.0019509 0)
(-0.0597014 0.0615591 0)
(-0.0577542 0.0633899 0)
(-0.0558819 0.0651503 0)
(-0.0541563 0.0667728 0)
(-0.0526438 0.0681948 0)
(-0.0514025 0.0693619 0)
(-0.0504802 0.0702291 0)
(-0.0499122 0.0707631 0)
(-0.0497204 0.0709435 0)
(-0.0499122 0.0707631 0)
(-0.0504802 0.0702291 0)
(-0.0514025 0.0693619 0)
(-0.0526438 0.0681948 0)
(-0.0541563 0.0667728 0)
(-0.0558819 0.0651503 0)
(-0.0577542 0.0633899 0)
(-0.0597014 0.0615591 0)
(-0.0616486 0.0597282 0)
(-0.063521 0.0579678 0)
(-0.0652466 0.0563454 0)
(-0.0667591 0.0549233 0)
(-0.0680004 0.0537562 0)
(-0.0689227 0.052889 0)
(-0.0694907 0.052355 0)
(-0.0696825 0.0521746 0)
(-0.0694907 0.052355 0)
(-0.0689227 0.052889 0)
(-0.0680004 0.0537562 0)
(-0.0667591 0.0549233 0)
(-0.0652466 0.0563454 0)
(-0.063521 0.0579678 0)
(-0.0616486 0.0597282 0)
(-0.115617 0.122885 0)
(-0.113681 0.124596 0)
(-0.111819 0.126241 0)
(-0.110103 0.127758 0)
(-0.108599 0.129087 0)
(-0.107365 0.130178 0)
(-0.106448 0.130988 0)
(-0.105883 0.131487 0)
(-0.105693 0.131656 0)
(-0.105883 0.131487 0)
(-0.106448 0.130988 0)
(-0.107365 0.130178 0)
(-0.108599 0.129087 0)
(-0.110103 0.127758 0)
(-0.111819 0.126241 0)
(-0.113681 0.124596 0)
(-0.115617 0.122885 0)
(-0.117553 0.121173 0)
(-0.119415 0.119528 0)
(-0.121131 0.118012 0)
(-0.122634 0.116682 0)
(-0.123869 0.115592 0)
(-0.124786 0.114781 0)
(-0.12535 0.114282 0)
(-0.125541 0.114113 0)
(-0.12535 0.114282 0)
(-0.124786 0.114781 0)
(-0.123869 0.115592 0)
(-0.122634 0.116682 0)
(-0.121131 0.118012 0)
(-0.119415 0.119528 0)
(-0.117553 0.121173 0)
(-0.167768 0.183744 0)
(-0.16585 0.185336 0)
(-0.164006 0.186868 0)
(-0.162307 0.188279 0)
(-0.160817 0.189516 0)
(-0.159595 0.190531 0)
(-0.158687 0.191285 0)
(-0.158127 0.19175 0)
(-0.157938 0.191907 0)
(-0.158127 0.19175 0)
(-0.158687 0.191285 0)
(-0.159595 0.190531 0)
(-0.160817 0.189516 0)
(-0.162307 0.188279 0)
(-0.164006 0.186868 0)
(-0.16585 0.185336 0)
(-0.167768 0.183744 0)
(-0.169686 0.182152 0)
(-0.17153 0.18062 0)
(-0.173229 0.179209 0)
(-0.174719 0.177972 0)
(-0.175941 0.176957 0)
(-0.17685 0.176203 0)
(-0.177409 0.175738 0)
(-0.177598 0.175581 0)
(-0.177409 0.175738 0)
(-0.17685 0.176203 0)
(-0.175941 0.176957 0)
(-0.174719 0.177972 0)
(-0.173229 0.179209 0)
(-0.17153 0.18062 0)
(-0.169686 0.182152 0)
(-0.216191 0.243907 0)
(-0.214299 0.245382 0)
(-0.212479 0.2468 0)
(-0.210803 0.248107 0)
(-0.209333 0.249253 0)
(-0.208127 0.250193 0)
(-0.207231 0.250892 0)
(-0.206679 0.251322 0)
(-0.206493 0.251467 0)
(-0.206679 0.251322 0)
(-0.207231 0.250892 0)
(-0.208127 0.250193 0)
(-0.209333 0.249253 0)
(-0.210803 0.248107 0)
(-0.212479 0.2468 0)
(-0.214299 0.245382 0)
(-0.216191 0.243907 0)
(-0.218083 0.242431 0)
(-0.219902 0.241013 0)
(-0.221579 0.239706 0)
(-0.223048 0.23856 0)
(-0.224254 0.23762 0)
(-0.225151 0.236921 0)
(-0.225702 0.236491 0)
(-0.225889 0.236346 0)
(-0.225702 0.236491 0)
(-0.225151 0.236921 0)
(-0.224254 0.23762 0)
(-0.223048 0.23856 0)
(-0.221579 0.239706 0)
(-0.219902 0.241013 0)
(-0.218083 0.242431 0)
(-0.260935 0.303144 0)
(-0.259076 0.304503 0)
(-0.257288 0.305811 0)
(-0.255641 0.307015 0)
(-0.254196 0.308071 0)
(-0.253011 0.308938 0)
(-0.252131 0.309582 0)
(-0.251588 0.309978 0)
(-0.251405 0.310112 0)
(-0.251588 0.309978 0)
(-0.252131 0.309582 0)
(-0.253011 0.308938 0)
(-0.254196 0.308071 0)
(-0.255641 0.307015 0)
(-0.257288 0.305811 0)
(-0.259076 0.304503 0)
(-0.260935 0.303144 0)
(-0.262794 0.301784 0)
(-0.264582 0.300477 0)
(-0.266229 0.299272 0)
(-0.267673 0.298216 0)
(-0.268858 0.29735 0)
(-0.269739 0.296706 0)
(-0.270281 0.296309 0)
(-0.270464 0.296175 0)
(-0.270281 0.296309 0)
(-0.269739 0.296706 0)
(-0.268858 0.29735 0)
(-0.267673 0.298216 0)
(-0.266229 0.299272 0)
(-0.264582 0.300477 0)
(-0.262794 0.301784 0)
(-0.302064 0.361231 0)
(-0.300245 0.362477 0)
(-0.298496 0.363676 0)
(-0.296884 0.36478 0)
(-0.295471 0.365748 0)
(-0.294311 0.366542 0)
(-0.293449 0.367133 0)
(-0.292919 0.367496 0)
(-0.292739 0.367619 0)
(-0.292919 0.367496 0)
(-0.293449 0.367133 0)
(-0.294311 0.366542 0)
(-0.295471 0.365748 0)
(-0.296884 0.36478 0)
(-0.298496 0.363676 0)
(-0.300245 0.362477 0)
(-0.302064 0.361231 0)
(-0.303883 0.359985 0)
(-0.305633 0.358787 0)
(-0.307245 0.357682 0)
(-0.308658 0.356715 0)
(-0.309818 0.35592 0)
(-0.310679 0.35533 0)
(-0.31121 0.354966 0)
(-0.311389 0.354844 0)
(-0.31121 0.354966 0)
(-0.310679 0.35533 0)
(-0.309818 0.35592 0)
(-0.308658 0.356715 0)
(-0.307245 0.357682 0)
(-0.305633 0.358787 0)
(-0.303883 0.359985 0)
(-0.339657 0.417949 0)
(-0.337884 0.419084 0)
(-0.33618 0.420176 0)
(-0.33461 0.421182 0)
(-0.333233 0.422064 0)
(-0.332103 0.422788 0)
(-0.331264 0.423326 0)
(-0.330747 0.423657 0)
(-0.330572 0.423769 0)
(-0.330747 0.423657 0)
(-0.331264 0.423326 0)
(-0.332103 0.422788 0)
(-0.333233 0.422064 0)
(-0.33461 0.421182 0)
(-0.33618 0.420176 0)
(-0.337884 0.419084 0)
(-0.339657 0.417949 0)
(-0.341429 0.416813 0)
(-0.343133 0.415721 0)
(-0.344704 0.414715 0)
(-0.346081 0.413833 0)
(-0.34721 0.413109 0)
(-0.34805 0.412571 0)
(-0.348567 0.41224 0)
(-0.348741 0.412128 0)
(-0.348567 0.41224 0)
(-0.34805 0.412571 0)
(-0.34721 0.413109 0)
(-0.346081 0.413833 0)
(-0.344704 0.414715 0)
(-0.343133 0.415721 0)
(-0.341429 0.416813 0)
(-0.373803 0.47308 0)
(-0.372084 0.474108 0)
(-0.370432 0.475097 0)
(-0.368909 0.476008 0)
(-0.367573 0.476806 0)
(-0.366478 0.477462 0)
(-0.365664 0.477949 0)
(-0.365162 0.478248 0)
(-0.364993 0.47835 0)
(-0.365162 0.478248 0)
(-0.365664 0.477949 0)
(-0.366478 0.477462 0)
(-0.367573 0.476806 0)
(-0.368909 0.476008 0)
(-0.370432 0.475097 0)
(-0.372084 0.474108 0)
(-0.373803 0.47308 0)
(-0.375522 0.472053 0)
(-0.377175 0.471064 0)
(-0.378698 0.470153 0)
(-0.380033 0.469355 0)
(-0.381129 0.468699 0)
(-0.381943 0.468212 0)
(-0.382444 0.467913 0)
(-0.382613 0.467811 0)
(-0.382444 0.467913 0)
(-0.381943 0.468212 0)
(-0.381129 0.468699 0)
(-0.380033 0.469355 0)
(-0.378698 0.470153 0)
(-0.377175 0.471064 0)
(-0.375522 0.472053 0)
(-0.404608 0.526418 0)
(-0.402949 0.527342 0)
(-0.401354 0.52823 0)
(-0.399884 0.529049 0)
(-0.398596 0.529767 0)
(-0.397539 0.530356 0)
(-0.396753 0.530793 0)
(-0.396269 0.531063 0)
(-0.396106 0.531154 0)
(-0.396269 0.531063 0)
(-0.396753 0.530793 0)
(-0.397539 0.530356 0)
(-0.398596 0.529767 0)
(-0.399884 0.529049 0)
(-0.401354 0.52823 0)
(-0.402949 0.527342 0)
(-0.404608 0.526418 0)
(-0.406267 0.525494 0)
(-0.407862 0.524606 0)
(-0.409332 0.523787 0)
(-0.41062 0.523069 0)
(-0.411677 0.52248 0)
(-0.412463 0.522043 0)
(-0.412947 0.521773 0)
(-0.41311 0.521682 0)
(-0.412947 0.521773 0)
(-0.412463 0.522043 0)
(-0.411677 0.52248 0)
(-0.41062 0.523069 0)
(-0.409332 0.523787 0)
(-0.407862 0.524606 0)
(-0.406267 0.525494 0)
(-0.432188 0.577759 0)
(-0.430595 0.578582 0)
(-0.429064 0.579375 0)
(-0.427653 0.580105 0)
(-0.426416 0.580744 0)
(-0.425401 0.581269 0)
(-0.424647 0.58166 0)
(-0.424182 0.5819 0)
(-0.424026 0.581981 0)
(-0.424182 0.5819 0)
(-0.424647 0.58166 0)
(-0.425401 0.581269 0)
(-0.426416 0.580744 0)
(-0.427653 0.580105 0)
(-0.429064 0.579375 0)
(-0.430595 0.578582 0)
(-0.432188 0.577759 0)
(-0.43378 0.576935 0)
(-0.435311 0.576143 0)
(-0.436722 0.575413 0)
(-0.437959 0.574773 0)
(-0.438974 0.574248 0)
(-0.439728 0.573858 0)
(-0.440193 0.573617 0)
(-0.44035 0.573536 0)
(-0.440193 0.573617 0)
(-0.439728 0.573858 0)
(-0.438974 0.574248 0)
(-0.437959 0.574773 0)
(-0.436722 0.575413 0)
(-0.435311 0.576143 0)
(-0.43378 0.576935 0)
(-0.456671 0.626908 0)
(-0.455151 0.627636 0)
(-0.45369 0.628336 0)
(-0.452343 0.628981 0)
(-0.451162 0.629546 0)
(-0.450193 0.63001 0)
(-0.449473 0.630355 0)
(-0.44903 0.630567 0)
(-0.44888 0.630639 0)
(-0.44903 0.630567 0)
(-0.449473 0.630355 0)
(-0.450193 0.63001 0)
(-0.451162 0.629546 0)
(-0.452343 0.628981 0)
(-0.45369 0.628336 0)
(-0.455151 0.627636 0)
(-0.456671 0.626908 0)
(-0.458191 0.62618 0)
(-0.459653 0.62548 0)
(-0.461 0.624835 0)
(-0.46218 0.62427 0)
(-0.463149 0.623806 0)
(-0.463869 0.623461 0)
(-0.464313 0.623249 0)
(-0.464462 0.623177 0)
(-0.464313 0.623249 0)
(-0.463869 0.623461 0)
(-0.463149 0.623806 0)
(-0.46218 0.62427 0)
(-0.461 0.624835 0)
(-0.459653 0.62548 0)
(-0.458191 0.62618 0)
(-0.4782 0.673679 0)
(-0.476758 0.674316 0)
(-0.475372 0.674928 0)
(-0.474094 0.675492 0)
(-0.472974 0.675987 0)
(-0.472055 0.676392 0)
(-0.471372 0.676694 0)
(-0.470952 0.67688 0)
(-0.47081 0.676942 0)
(-0.470952 0.67688 0)
(-0.471372 0.676694 0)
(-0.472055 0.676392 0)
(-0.472974 0.675987 0)
(-0.474094 0.675492 0)
(-0.475372 0.674928 0)
(-0.476758 0.674316 0)
(-0.4782 0.673679 0)
(-0.479642 0.673043 0)
(-0.481028 0.67243 0)
(-0.482306 0.671866 0)
(-0.483426 0.671372 0)
(-0.484345 0.670966 0)
(-0.485028 0.670664 0)
(-0.485448 0.670479 0)
(-0.48559 0.670416 0)
(-0.485448 0.670479 0)
(-0.485028 0.670664 0)
(-0.484345 0.670966 0)
(-0.483426 0.671372 0)
(-0.482306 0.671866 0)
(-0.481028 0.67243 0)
(-0.479642 0.673043 0)
(-0.496926 0.717896 0)
(-0.495567 0.718446 0)
(-0.494261 0.718975 0)
(-0.493058 0.719463 0)
(-0.492003 0.719891 0)
(-0.491137 0.720241 0)
(-0.490494 0.720502 0)
(-0.490098 0.720663 0)
(-0.489964 0.720717 0)
(-0.490098 0.720663 0)
(-0.490494 0.720502 0)
(-0.491137 0.720241 0)
(-0.492003 0.719891 0)
(-0.493058 0.719463 0)
(-0.494261 0.718975 0)
(-0.495567 0.718446 0)
(-0.496926 0.717896 0)
(-0.498284 0.717345 0)
(-0.49959 0.716816 0)
(-0.500793 0.716329 0)
(-0.501848 0.715901 0)
(-0.502714 0.71555 0)
(-0.503357 0.71529 0)
(-0.503753 0.715129 0)
(-0.503887 0.715075 0)
(-0.503753 0.715129 0)
(-0.503357 0.71529 0)
(-0.502714 0.71555 0)
(-0.501848 0.715901 0)
(-0.500793 0.716329 0)
(-0.49959 0.716816 0)
(-0.498284 0.717345 0)
(-0.51301 0.759389 0)
(-0.511741 0.759858 0)
(-0.51052 0.760309 0)
(-0.509396 0.760725 0)
(-0.50841 0.76109 0)
(-0.5076 0.761389 0)
(-0.506999 0.761612 0)
(-0.506629 0.761749 0)
(-0.506504 0.761795 0)
(-0.506629 0.761749 0)
(-0.506999 0.761612 0)
(-0.5076 0.761389 0)
(-0.50841 0.76109 0)
(-0.509396 0.760725 0)
(-0.51052 0.760309 0)
(-0.511741 0.759858 0)
(-0.51301 0.759389 0)
(-0.51428 0.758919 0)
(-0.5155 0.758468 0)
(-0.516625 0.758052 0)
(-0.517611 0.757687 0)
(-0.51842 0.757388 0)
(-0.519021 0.757166 0)
(-0.519392 0.757029 0)
(-0.519517 0.756983 0)
(-0.519392 0.757029 0)
(-0.519021 0.757166 0)
(-0.51842 0.757388 0)
(-0.517611 0.757687 0)
(-0.516625 0.758052 0)
(-0.5155 0.758468 0)
(-0.51428 0.758919 0)
(-0.526627 0.798001 0)
(-0.525451 0.798395 0)
(-0.524321 0.798774 0)
(-0.523279 0.799123 0)
(-0.522366 0.799429 0)
(-0.521616 0.799681 0)
(-0.521059 0.799867 0)
(-0.520716 0.799982 0)
(-0.5206 0.800021 0)
(-0.520716 0.799982 0)
(-0.521059 0.799867 0)
(-0.521616 0.799681 0)
(-0.522366 0.799429 0)
(-0.523279 0.799123 0)
(-0.524321 0.798774 0)
(-0.525451 0.798395 0)
(-0.526627 0.798001 0)
(-0.527803 0.797607 0)
(-0.528933 0.797228 0)
(-0.529975 0.796879 0)
(-0.530888 0.796573 0)
(-0.531638 0.796321 0)
(-0.532195 0.796135 0)
(-0.532538 0.79602 0)
(-0.532654 0.795981 0)
(-0.532538 0.79602 0)
(-0.532195 0.796135 0)
(-0.531638 0.796321 0)
(-0.530888 0.796573 0)
(-0.529975 0.796879 0)
(-0.528933 0.797228 0)
(-0.527803 0.797607 0)
(-0.537958 0.833587 0)
(-0.53688 0.833911 0)
(-0.535844 0.834223 0)
(-0.534889 0.834511 0)
(-0.534052 0.834763 0)
(-0.533365 0.83497 0)
(-0.532854 0.835124 0)
(-0.53254 0.835219 0)
(-0.532434 0.835251 0)
(-0.53254 0.835219 0)
(-0.532854 0.835124 0)
(-0.533365 0.83497 0)
(-0.534052 0.834763 0)
(-0.534889 0.834511 0)
(-0.535844 0.834223 0)
(-0.53688 0.833911 0)
(-0.537958 0.833587 0)
(-0.539036 0.833262 0)
(-0.540072 0.83295 0)
(-0.541027 0.832662 0)
(-0.541864 0.83241 0)
(-0.542551 0.832203 0)
(-0.543061 0.832049 0)
(-0.543376 0.831954 0)
(-0.543482 0.831922 0)
(-0.543376 0.831954 0)
(-0.543061 0.832049 0)
(-0.542551 0.832203 0)
(-0.541864 0.83241 0)
(-0.541027 0.832662 0)
(-0.540072 0.83295 0)
(-0.539036 0.833262 0)
(-0.547194 0.866012 0)
(-0.546218 0.866273 0)
(-0.54528 0.866524 0)
(-0.544416 0.866756 0)
(-0.543658 0.866959 0)
(-0.543036 0.867126 0)
(-0.542574 0.86725 0)
(-0.54229 0.867326 0)
(-0.542194 0.867352 0)
(-0.54229 0.867326 0)
(-0.542574 0.86725 0)
(-0.543036 0.867126 0)
(-0.543658 0.866959 0)
(-0.544416 0.866756 0)
(-0.54528 0.866524 0)
(-0.546218 0.866273 0)
(-0.547194 0.866012 0)
(-0.548169 0.86575 0)
(-0.549107 0.865499 0)
(-0.549972 0.865267 0)
(-0.55073 0.865064 0)
(-0.551351 0.864898 0)
(-0.551813 0.864774 0)
(-0.552098 0.864697 0)
(-0.552194 0.864672 0)
(-0.552098 0.864697 0)
(-0.551813 0.864774 0)
(-0.551351 0.864898 0)
(-0.55073 0.865064 0)
(-0.549972 0.865267 0)
(-0.549107 0.865499 0)
(-0.548169 0.86575 0)
(-0.554532 0.895147 0)
(-0.553662 0.895351 0)
(-0.552826 0.895548 0)
(-0.552055 0.895729 0)
(-0.55138 0.895888 0)
(-0.550825 0.896018 0)
(-0.550413 0.896115 0)
(-0.55016 0.896175 0)
(-0.550074 0.896195 0)
(-0.55016 0.896175 0)
(-0.550413 0.896115 0)
(-0.550825 0.896018 0)
(-0.55138 0.895888 0)
(-0.552055 0.895729 0)
(-0.552826 0.895548 0)
(-0.553662 0.895351 0)
(-0.554532 0.895147 0)
(-0.555401 0.894942 0)
(-0.556238 0.894745 0)
(-0.557008 0.894564 0)
(-0.557684 0.894405 0)
(-0.558238 0.894275 0)
(-0.55865 0.894178 0)
(-0.558904 0.894118 0)
(-0.55899 0.894098 0)
(-0.558904 0.894118 0)
(-0.55865 0.894178 0)
(-0.558238 0.894275 0)
(-0.557684 0.894405 0)
(-0.557008 0.894564 0)
(-0.556238 0.894745 0)
(-0.555401 0.894942 0)
(-0.56018 0.920891 0)
(-0.55942 0.921045 0)
(-0.558688 0.921194 0)
(-0.558014 0.92133 0)
(-0.557424 0.92145 0)
(-0.556939 0.921549 0)
(-0.556579 0.921622 0)
(-0.556357 0.921667 0)
(-0.556282 0.921682 0)
(-0.556357 0.921667 0)
(-0.556579 0.921622 0)
(-0.556939 0.921549 0)
(-0.557424 0.92145 0)
(-0.558014 0.92133 0)
(-0.558688 0.921194 0)
(-0.55942 0.921045 0)
(-0.56018 0.920891 0)
(-0.560941 0.920737 0)
(-0.561672 0.920588 0)
(-0.562346 0.920451 0)
(-0.562937 0.920332 0)
(-0.563421 0.920233 0)
(-0.563782 0.92016 0)
(-0.564003 0.920115 0)
(-0.564078 0.9201 0)
(-0.564003 0.920115 0)
(-0.563782 0.92016 0)
(-0.563421 0.920233 0)
(-0.562937 0.920332 0)
(-0.562346 0.920451 0)
(-0.561672 0.920588 0)
(-0.560941 0.920737 0)
(-0.56435 0.943142 0)
(-0.563701 0.943253 0)
(-0.563078 0.94336 0)
(-0.562503 0.943458 0)
(-0.561999 0.943544 0)
(-0.561586 0.943615 0)
(-0.561279 0.943667 0)
(-0.56109 0.9437 0)
(-0.561026 0.943711 0)
(-0.56109 0.9437 0)
(-0.561279 0.943667 0)
(-0.561586 0.943615 0)
(-0.561999 0.943544 0)
(-0.562503 0.943458 0)
(-0.563078 0.94336 0)
(-0.563701 0.943253 0)
(-0.56435 0.943142 0)
(-0.564998 0.943031 0)
(-0.565622 0.942925 0)
(-0.566196 0.942826 0)
(-0.5667 0.94274 0)
(-0.567114 0.942669 0)
(-0.567421 0.942617 0)
(-0.56761 0.942584 0)
(-0.567674 0.942574 0)
(-0.56761 0.942584 0)
(-0.567421 0.942617 0)
(-0.567114 0.942669 0)
(-0.5667 0.94274 0)
(-0.566196 0.942826 0)
(-0.565622 0.942925 0)
(-0.564998 0.943031 0)
(-0.567259 0.961816 0)
(-0.566725 0.96189 0)
(-0.566211 0.961962 0)
(-0.565738 0.962028 0)
(-0.565323 0.962086 0)
(-0.564983 0.962133 0)
(-0.56473 0.962168 0)
(-0.564574 0.96219 0)
(-0.564522 0.962197 0)
(-0.564574 0.96219 0)
(-0.56473 0.962168 0)
(-0.564983 0.962133 0)
(-0.565323 0.962086 0)
(-0.565738 0.962028 0)
(-0.566211 0.961962 0)
(-0.566725 0.96189 0)
(-0.567259 0.961816 0)
(-0.567793 0.961741 0)
(-0.568306 0.961669 0)
(-0.568779 0.961603 0)
(-0.569194 0.961546 0)
(-0.569534 0.961498 0)
(-0.569787 0.961463 0)
(-0.569943 0.961441 0)
(-0.569996 0.961434 0)
(-0.569943 0.961441 0)
(-0.569787 0.961463 0)
(-0.569534 0.961498 0)
(-0.569194 0.961546 0)
(-0.568779 0.961603 0)
(-0.568306 0.961669 0)
(-0.567793 0.961741 0)
(-0.569129 0.97684 0)
(-0.568712 0.976886 0)
(-0.56831 0.976929 0)
(-0.56794 0.976969 0)
(-0.567616 0.977004 0)
(-0.56735 0.977033 0)
(-0.567152 0.977054 0)
(-0.56703 0.977068 0)
(-0.566989 0.977072 0)
(-0.56703 0.977068 0)
(-0.567152 0.977054 0)
(-0.56735 0.977033 0)
(-0.567616 0.977004 0)
(-0.56794 0.976969 0)
(-0.56831 0.976929 0)
(-0.568712 0.976886 0)
(-0.569129 0.97684 0)
(-0.569546 0.976795 0)
(-0.569948 0.976752 0)
(-0.570318 0.976712 0)
(-0.570642 0.976677 0)
(-0.570908 0.976648 0)
(-0.571106 0.976626 0)
(-0.571228 0.976613 0)
(-0.571269 0.976609 0)
(-0.571228 0.976613 0)
(-0.571106 0.976626 0)
(-0.570908 0.976648 0)
(-0.570642 0.976677 0)
(-0.570318 0.976712 0)
(-0.569948 0.976752 0)
(-0.569546 0.976795 0)
(-0.570188 0.988158 0)
(-0.569888 0.988181 0)
(-0.569601 0.988204 0)
(-0.569335 0.988224 0)
(-0.569103 0.988242 0)
(-0.568912 0.988257 0)
(-0.56877 0.988268 0)
(-0.568683 0.988274 0)
(-0.568653 0.988277 0)
(-0.568683 0.988274 0)
(-0.56877 0.988268 0)
(-0.568912 0.988257 0)
(-0.569103 0.988242 0)
(-0.569335 0.988224 0)
(-0.569601 0.988204 0)
(-0.569888 0.988181 0)
(-0.570188 0.988158 0)
(-0.570487 0.988135 0)
(-0.570775 0.988113 0)
(-0.57104 0.988093 0)
(-0.571273 0.988075 0)
(-0.571464 0.98806 0)
(-0.571605 0.988049 0)
(-0.571693 0.988042 0)
(-0.571722 0.98804 0)
(-0.571693 0.988042 0)
(-0.571605 0.988049 0)
(-0.571464 0.98806 0)
(-0.571273 0.988075 0)
(-0.57104 0.988093 0)
(-0.570775 0.988113 0)
(-0.570487 0.988135 0)
(-0.570665 0.99573 0)
(-0.570485 0.995738 0)
(-0.570311 0.995746 0)
(-0.570152 0.995754 0)
(-0.570012 0.99576 0)
(-0.569897 0.995765 0)
(-0.569812 0.995769 0)
(-0.569759 0.995772 0)
(-0.569742 0.995773 0)
(-0.569759 0.995772 0)
(-0.569812 0.995769 0)
(-0.569897 0.995765 0)
(-0.570012 0.99576 0)
(-0.570152 0.995754 0)
(-0.570311 0.995746 0)
(-0.570485 0.995738 0)
(-0.570665 0.99573 0)
(-0.570845 0.995722 0)
(-0.571018 0.995714 0)
(-0.571178 0.995706 0)
(-0.571317 0.9957 0)
(-0.571432 0.995694 0)
(-0.571518 0.99569 0)
(-0.57157 0.995688 0)
(-0.571588 0.995687 0)
(-0.57157 0.995688 0)
(-0.571518 0.99569 0)
(-0.571432 0.995694 0)
(-0.571317 0.9957 0)
(-0.571178 0.995706 0)
(-0.571018 0.995714 0)
(-0.570845 0.995722 0)
(-0.570791 0.999524 0)
(-0.570731 0.999525 0)
(-0.570673 0.999526 0)
(-0.57062 0.999527 0)
(-0.570573 0.999528 0)
(-0.570535 0.999528 0)
(-0.570506 0.999529 0)
(-0.570489 0.999529 0)
(-0.570483 0.999529 0)
(-0.570489 0.999529 0)
(-0.570506 0.999529 0)
(-0.570535 0.999528 0)
(-0.570573 0.999528 0)
(-0.57062 0.999527 0)
(-0.570673 0.999526 0)
(-0.570731 0.999525 0)
(-0.570791 0.999524 0)
(-0.570852 0.999523 0)
(-0.570909 0.999522 0)
(-0.570963 0.999522 0)
(-0.57101 0.999521 0)
(-0.571048 0.99952 0)
(-0.571076 0.99952 0)
(-0.571094 0.99952 0)
(-0.5711 0.99952 0)
(-0.571094 0.99952 0)
(-0.571076 0.99952 0)
(-0.571048 0.99952 0)
(-0.57101 0.999521 0)
(-0.570963 0.999522 0)
(-0.570909 0.999522 0)
(-0.570852 0.999523 0)
(-0.570801 0.999527 0)
(-0.570861 0.999528 0)
(-0.570919 0.999529 0)
(-0.570972 0.99953 0)
(-0.571019 0.99953 0)
(-0.571057 0.999531 0)
(-0.571085 0.999532 0)
(-0.571103 0.999532 0)
(-0.571109 0.999532 0)
(-0.571103 0.999532 0)
(-0.571085 0.999532 0)
(-0.571057 0.999531 0)
(-0.571019 0.99953 0)
(-0.570972 0.99953 0)
(-0.570919 0.999529 0)
(-0.570861 0.999528 0)
(-0.570801 0.999527 0)
(-0.570741 0.999526 0)
(-0.570684 0.999525 0)
(-0.57063 0.999525 0)
(-0.570584 0.999524 0)
(-0.570546 0.999523 0)
(-0.570517 0.999523 0)
(-0.5705 0.999523 0)
(-0.570494 0.999522 0)
(-0.5705 0.999523 0)
(-0.570517 0.999523 0)
(-0.570546 0.999523 0)
(-0.570584 0.999524 0)
(-0.57063 0.999525 0)
(-0.570684 0.999525 0)
(-0.570741 0.999526 0)
(-0.570928 0.995738 0)
(-0.571107 0.995747 0)
(-0.57128 0.995755 0)
(-0.57144 0.995762 0)
(-0.57158 0.995769 0)
(-0.571694 0.995774 0)
(-0.57178 0.995778 0)
(-0.571832 0.99578 0)
(-0.57185 0.995781 0)
(-0.571832 0.99578 0)
(-0.57178 0.995778 0)
(-0.571694 0.995774 0)
(-0.57158 0.995769 0)
(-0.57144 0.995762 0)
(-0.57128 0.995755 0)
(-0.571107 0.995747 0)
(-0.570928 0.995738 0)
(-0.570748 0.99573 0)
(-0.570575 0.995722 0)
(-0.570415 0.995715 0)
(-0.570275 0.995708 0)
(-0.570161 0.995703 0)
(-0.570076 0.995699 0)
(-0.570023 0.995697 0)
(-0.570005 0.995696 0)
(-0.570023 0.995697 0)
(-0.570076 0.995699 0)
(-0.570161 0.995703 0)
(-0.570275 0.995708 0)
(-0.570415 0.995715 0)
(-0.570575 0.995722 0)
(-0.570748 0.99573 0)
(-0.571404 0.988173 0)
(-0.571703 0.988196 0)
(-0.571991 0.988218 0)
(-0.572256 0.988238 0)
(-0.572488 0.988256 0)
(-0.572679 0.988271 0)
(-0.572821 0.988282 0)
(-0.572908 0.988289 0)
(-0.572937 0.988291 0)
(-0.572908 0.988289 0)
(-0.572821 0.988282 0)
(-0.572679 0.988271 0)
(-0.572488 0.988256 0)
(-0.572256 0.988238 0)
(-0.571991 0.988218 0)
(-0.571703 0.988196 0)
(-0.571404 0.988173 0)
(-0.571105 0.988149 0)
(-0.570817 0.988127 0)
(-0.570552 0.988107 0)
(-0.570319 0.988089 0)
(-0.570129 0.988074 0)
(-0.569987 0.988063 0)
(-0.5699 0.988057 0)
(-0.56987 0.988054 0)
(-0.5699 0.988057 0)
(-0.569987 0.988063 0)
(-0.570129 0.988074 0)
(-0.570319 0.988089 0)
(-0.570552 0.988107 0)
(-0.570817 0.988127 0)
(-0.571105 0.988149 0)
(-0.572461 0.97686 0)
(-0.572879 0.976905 0)
(-0.57328 0.976949 0)
(-0.57365 0.976989 0)
(-0.573974 0.977024 0)
(-0.57424 0.977053 0)
(-0.574437 0.977074 0)
(-0.574559 0.977087 0)
(-0.5746 0.977092 0)
(-0.574559 0.977087 0)
(-0.574437 0.977074 0)
(-0.57424 0.977053 0)
(-0.573974 0.977024 0)
(-0.57365 0.976989 0)
(-0.57328 0.976949 0)
(-0.572879 0.976905 0)
(-0.572461 0.97686 0)
(-0.572044 0.976815 0)
(-0.571643 0.976772 0)
(-0.571273 0.976732 0)
(-0.570949 0.976697 0)
(-0.570683 0.976668 0)
(-0.570485 0.976646 0)
(-0.570364 0.976633 0)
(-0.570323 0.976629 0)
(-0.570364 0.976633 0)
(-0.570485 0.976646 0)
(-0.570683 0.976668 0)
(-0.570949 0.976697 0)
(-0.571273 0.976732 0)
(-0.571643 0.976772 0)
(-0.572044 0.976815 0)
(-0.574331 0.961841 0)
(-0.574864 0.961915 0)
(-0.575378 0.961987 0)
(-0.575851 0.962053 0)
(-0.576265 0.962111 0)
(-0.576606 0.962158 0)
(-0.576858 0.962193 0)
(-0.577014 0.962215 0)
(-0.577067 0.962222 0)
(-0.577014 0.962215 0)
(-0.576858 0.962193 0)
(-0.576606 0.962158 0)
(-0.576265 0.962111 0)
(-0.575851 0.962053 0)
(-0.575378 0.961987 0)
(-0.574864 0.961915 0)
(-0.574331 0.961841 0)
(-0.573797 0.961766 0)
(-0.573284 0.961695 0)
(-0.57281 0.961629 0)
(-0.572396 0.961571 0)
(-0.572056 0.961524 0)
(-0.571803 0.961488 0)
(-0.571647 0.961467 0)
(-0.571594 0.961459 0)
(-0.571647 0.961467 0)
(-0.571803 0.961488 0)
(-0.572056 0.961524 0)
(-0.572396 0.961571 0)
(-0.57281 0.961629 0)
(-0.573284 0.961695 0)
(-0.573797 0.961766 0)
(-0.577238 0.943173 0)
(-0.577886 0.943284 0)
(-0.578509 0.94339 0)
(-0.579084 0.943489 0)
(-0.579587 0.943575 0)
(-0.580001 0.943645 0)
(-0.580308 0.943698 0)
(-0.580497 0.94373 0)
(-0.580561 0.943741 0)
(-0.580497 0.94373 0)
(-0.580308 0.943698 0)
(-0.580001 0.943645 0)
(-0.579587 0.943575 0)
(-0.579084 0.943489 0)
(-0.578509 0.94339 0)
(-0.577886 0.943284 0)
(-0.577238 0.943173 0)
(-0.576589 0.943062 0)
(-0.575966 0.942955 0)
(-0.575391 0.942857 0)
(-0.574888 0.942771 0)
(-0.574475 0.9427 0)
(-0.574168 0.942648 0)
(-0.573978 0.942616 0)
(-0.573915 0.942605 0)
(-0.573978 0.942616 0)
(-0.574168 0.942648 0)
(-0.574475 0.9427 0)
(-0.574888 0.942771 0)
(-0.575391 0.942857 0)
(-0.575966 0.942955 0)
(-0.576589 0.943062 0)
(-0.581405 0.920927 0)
(-0.582165 0.921081 0)
(-0.582897 0.92123 0)
(-0.58357 0.921366 0)
(-0.584161 0.921486 0)
(-0.584646 0.921585 0)
(-0.585006 0.921658 0)
(-0.585228 0.921703 0)
(-0.585302 0.921718 0)
(-0.585228 0.921703 0)
(-0.585006 0.921658 0)
(-0.584646 0.921585 0)
(-0.584161 0.921486 0)
(-0.58357 0.921366 0)
(-0.582897 0.92123 0)
(-0.582165 0.921081 0)
(-0.581405 0.920927 0)
(-0.580645 0.920773 0)
(-0.579914 0.920625 0)
(-0.57924 0.920488 0)
(-0.578649 0.920368 0)
(-0.578165 0.92027 0)
(-0.577804 0.920197 0)
(-0.577583 0.920152 0)
(-0.577508 0.920136 0)
(-0.577583 0.920152 0)
(-0.577804 0.920197 0)
(-0.578165 0.92027 0)
(-0.578649 0.920368 0)
(-0.57924 0.920488 0)
(-0.579914 0.920625 0)
(-0.580645 0.920773 0)
(-0.587051 0.895188 0)
(-0.587921 0.895392 0)
(-0.588757 0.895589 0)
(-0.589527 0.89577 0)
(-0.590203 0.895929 0)
(-0.590757 0.896059 0)
(-0.591169 0.896156 0)
(-0.591422 0.896216 0)
(-0.591508 0.896236 0)
(-0.591422 0.896216 0)
(-0.591169 0.896156 0)
(-0.590757 0.896059 0)
(-0.590203 0.895929 0)
(-0.589527 0.89577 0)
(-0.588757 0.895589 0)
(-0.587921 0.895392 0)
(-0.587051 0.895188 0)
(-0.586182 0.894983 0)
(-0.585346 0.894787 0)
(-0.584575 0.894606 0)
(-0.5839 0.894447 0)
(-0.583345 0.894316 0)
(-0.582933 0.89422 0)
(-0.58268 0.89416 0)
(-0.582594 0.89414 0)
(-0.58268 0.89416 0)
(-0.582933 0.89422 0)
(-0.583345 0.894316 0)
(-0.5839 0.894447 0)
(-0.584575 0.894606 0)
(-0.585346 0.894787 0)
(-0.586182 0.894983 0)
(-0.594386 0.866058 0)
(-0.595362 0.866319 0)
(-0.5963 0.866571 0)
(-0.597164 0.866802 0)
(-0.597922 0.867005 0)
(-0.598543 0.867172 0)
(-0.599005 0.867295 0)
(-0.59929 0.867372 0)
(-0.599386 0.867397 0)
(-0.59929 0.867372 0)
(-0.599005 0.867295 0)
(-0.598543 0.867172 0)
(-0.597922 0.867005 0)
(-0.597164 0.866802 0)
(-0.5963 0.866571 0)
(-0.595362 0.866319 0)
(-0.594386 0.866058 0)
(-0.593411 0.865797 0)
(-0.592473 0.865545 0)
(-0.591609 0.865314 0)
(-0.590851 0.865111 0)
(-0.59023 0.864944 0)
(-0.589768 0.86482 0)
(-0.589483 0.864744 0)
(-0.589387 0.864719 0)
(-0.589483 0.864744 0)
(-0.589768 0.86482 0)
(-0.59023 0.864944 0)
(-0.590851 0.865111 0)
(-0.591609 0.865314 0)
(-0.592473 0.865545 0)
(-0.593411 0.865797 0)
(-0.603619 0.833638 0)
(-0.604697 0.833963 0)
(-0.605733 0.834275 0)
(-0.606688 0.834563 0)
(-0.607525 0.834815 0)
(-0.608211 0.835022 0)
(-0.608722 0.835175 0)
(-0.609036 0.83527 0)
(-0.609142 0.835302 0)
(-0.609036 0.83527 0)
(-0.608722 0.835175 0)
(-0.608211 0.835022 0)
(-0.607525 0.834815 0)
(-0.606688 0.834563 0)
(-0.605733 0.834275 0)
(-0.604697 0.833963 0)
(-0.603619 0.833638 0)
(-0.602542 0.833314 0)
(-0.601506 0.833002 0)
(-0.600551 0.832714 0)
(-0.599714 0.832462 0)
(-0.599027 0.832255 0)
(-0.598516 0.832101 0)
(-0.598202 0.832007 0)
(-0.598096 0.831975 0)
(-0.598202 0.832007 0)
(-0.598516 0.832101 0)
(-0.599027 0.832255 0)
(-0.599714 0.832462 0)
(-0.600551 0.832714 0)
(-0.601506 0.833002 0)
(-0.602542 0.833314 0)
(-0.614947 0.798056 0)
(-0.616123 0.79845 0)
(-0.617253 0.798829 0)
(-0.618295 0.799178 0)
(-0.619208 0.799484 0)
(-0.619957 0.799735 0)
(-0.620514 0.799922 0)
(-0.620857 0.800037 0)
(-0.620973 0.800076 0)
(-0.620857 0.800037 0)
(-0.620514 0.799922 0)
(-0.619957 0.799735 0)
(-0.619208 0.799484 0)
(-0.618295 0.799178 0)
(-0.617253 0.798829 0)
(-0.616123 0.79845 0)
(-0.614947 0.798056 0)
(-0.613772 0.797662 0)
(-0.612641 0.797283 0)
(-0.611599 0.796934 0)
(-0.610686 0.796628 0)
(-0.609937 0.796377 0)
(-0.60938 0.796191 0)
(-0.609037 0.796076 0)
(-0.608921 0.796037 0)
(-0.609037 0.796076 0)
(-0.60938 0.796191 0)
(-0.609937 0.796377 0)
(-0.610686 0.796628 0)
(-0.611599 0.796934 0)
(-0.612641 0.797283 0)
(-0.613772 0.797662 0)
(-0.628561 0.759447 0)
(-0.62983 0.759916 0)
(-0.63105 0.760368 0)
(-0.632175 0.760783 0)
(-0.633161 0.761148 0)
(-0.63397 0.761447 0)
(-0.634571 0.761669 0)
(-0.634941 0.761806 0)
(-0.635067 0.761853 0)
(-0.634941 0.761806 0)
(-0.634571 0.761669 0)
(-0.63397 0.761447 0)
(-0.633161 0.761148 0)
(-0.632175 0.760783 0)
(-0.63105 0.760368 0)
(-0.62983 0.759916 0)
(-0.628561 0.759447 0)
(-0.627292 0.758978 0)
(-0.626071 0.758526 0)
(-0.624946 0.758111 0)
(-0.623961 0.757746 0)
(-0.623152 0.757447 0)
(-0.62255 0.757225 0)
(-0.62218 0.757088 0)
(-0.622055 0.757041 0)
(-0.62218 0.757088 0)
(-0.62255 0.757225 0)
(-0.623152 0.757447 0)
(-0.623961 0.757746 0)
(-0.624946 0.758111 0)
(-0.626071 0.758526 0)
(-0.627292 0.758978 0)
(-0.644642 0.717957 0)
(-0.646 0.718507 0)
(-0.647306 0.719036 0)
(-0.64851 0.719524 0)
(-0.649564 0.719951 0)
(-0.65043 0.720302 0)
(-0.651073 0.720563 0)
(-0.65147 0.720723 0)
(-0.651603 0.720777 0)
(-0.65147 0.720723 0)
(-0.651073 0.720563 0)
(-0.65043 0.720302 0)
(-0.649564 0.719951 0)
(-0.64851 0.719524 0)
(-0.647306 0.719036 0)
(-0.646 0.718507 0)
(-0.644642 0.717957 0)
(-0.643284 0.717407 0)
(-0.641979 0.716878 0)
(-0.640775 0.71639 0)
(-0.63972 0.715962 0)
(-0.638855 0.715612 0)
(-0.638211 0.715351 0)
(-0.637815 0.715191 0)
(-0.637682 0.715136 0)
(-0.637815 0.715191 0)
(-0.638211 0.715351 0)
(-0.638855 0.715612 0)
(-0.63972 0.715962 0)
(-0.640775 0.71639 0)
(-0.641979 0.716878 0)
(-0.643284 0.717407 0)
(-0.663361 0.673751 0)
(-0.664803 0.674387 0)
(-0.666189 0.674999 0)
(-0.667467 0.675563 0)
(-0.668586 0.676058 0)
(-0.669505 0.676463 0)
(-0.670188 0.676765 0)
(-0.670609 0.67695 0)
(-0.670751 0.677013 0)
(-0.670609 0.67695 0)
(-0.670188 0.676765 0)
(-0.669505 0.676463 0)
(-0.668586 0.676058 0)
(-0.667467 0.675563 0)
(-0.666189 0.674999 0)
(-0.664803 0.674387 0)
(-0.663361 0.673751 0)
(-0.66192 0.673114 0)
(-0.660533 0.672502 0)
(-0.659256 0.671938 0)
(-0.658136 0.671444 0)
(-0.657217 0.671038 0)
(-0.656534 0.670736 0)
(-0.656114 0.670551 0)
(-0.655972 0.670488 0)
(-0.656114 0.670551 0)
(-0.656534 0.670736 0)
(-0.657217 0.671038 0)