/*--------------------------------*- C++ -*----------------------------------*\
| =========                 |                                                 |
| \\      /  F ield         | foam-extend: Open Source CFD                    |
|  \\    /   O peration     | Version:     4.1                                |
|   \\  /    A nd           | Web:         http://www.foam-extend.org         |
|    \\/     M anipulation  |                                                 |
\*---------------------------------------------------------------------------*/
FoamFile
{
    version     2.0;
    format      ascii;
    class       volTensorField;
    location    "0";
    object      refRM;
}
// * * * * * * * * * * * * * * * * * * * * * * * * * * * * * * * * * * * * * //

dimensions      [0 0 0 0 0 0 0];

internalField   nonuniform List<tensor> 
102
(
(0.0307941 -0.999526 0 0.999526 0.0307941 0 0 0 1)
(0.0922656 -0.995734 0 0.995734 0.0922656 0 0 0 1)
(0.153387 -0.988166 0 0.988166 0.153387 0 0 0 1)
(0.213927 -0.97685 0 0.97685 0.213927 0 0 0 1)
(0.273655 -0.961828 0 0.961828 0.273655 0 0 0 1)
(0.332345 -0.943158 0 0.943158 0.332345 0 0 0 1)
(0.389775 -0.92091 0 0.92091 0.389775 0 0 0 1)
(0.445726 -0.895169 0 0.895169 0.445726 0 0 0 1)
(0.499986 -0.866033 0 0.866033 0.499986 0 0 0 1)
(0.55235 -0.833612 0 0.833612 0.55235 0 0 0 1)
(0.602619 -0.798029 0 0.798029 0.602619 0 0 0 1)
(0.650602 -0.759419 0 0.759419 0.650602 0 0 0 1)
(0.696118 -0.717928 0 0.717928 0.696118 0 0 0 1)
(0.738993 -0.673713 0 0.673713 0.738993 0 0 0 1)
(0.779064 -0.626944 0 0.626944 0.779064 0 0 0 1)
(0.816181 -0.577796 0 0.577796 0.816181 0 0 0 1)
(0.850202 -0.526456 0 0.526456 0.850202 0 0 0 1)
(0.880997 -0.473122 0 0.473122 0.880997 0 0 0 1)
(0.90845 -0.417994 0 0.417994 0.90845 0 0 0 1)
(0.932459 -0.361276 0 0.361276 0.932459 0 0 0 1)
(0.952931 -0.303188 0 0.303188 0.952931 0 0 0 1)
(0.969788 -0.24395 0 0.24395 0.969788 0 0 0 1)
(0.982965 -0.183791 0 0.183791 0.982965 0 0 0 1)
(0.992415 -0.122935 0 0.122935 0.992415 0 0 0 1)
(0.9981 -0.0616073 0 0.0616073 0.9981 0 0 0 1)
(1 -4.63268e-05 0 4.63268e-05 1 0 0 0 1)
(0.998106 0.0615148 0 -0.0615148 0.998106 0 0 0 1)
(0.992426 0.122843 0 -0.122843 0.992426 0 0 0 1)
(0.982982 0.183699 0 -0.183699 0.982982 0 0 0 1)
(0.969811 0.24386 0 -0.24386 0.969811 0 0 0 1)
(0.952959 0.3031 0 -0.3031 0.952959 0 0 0 1)
(0.932492 0.36119 0 -0.36119 0.932492 0 0 0 1)
(0.908488 0.41791 0 -0.41791 0.908488 0 0 0 1)
(0.881041 0.473041 0 -0.473041 0.881041 0 0 0 1)
(0.850251 0.526377 0 -0.526377 0.850251 0 0 0 1)
(0.816234 0.577721 0 -0.577721 0.816234 0 0 0 1)
(0.779121 0.626873 0 -0.626873 0.779121 0 0 0 1)
(0.739052 0.673648 0 -0.673648 0.739052 0 0 0 1)
(0.696184 0.717864 0 -0.717864 0.696184 0 0 0 1)
(0.650675 0.759357 0 -0.759357 0.650675 0 0 0 1)
(0.602694 0.797973 0 -0.797973 0.602694 0 0 0 1)
(0.552427 0.833561 0 -0.833561 0.552427 0 0 0 1)
(0.500064 0.865988 0 -0.865988 0.500064 0 0 0 1)
(0.445809 0.895128 0 -0.895128 0.445809 0 0 0 1)
(0.389863 0.920873 0 -0.920873 0.389863 0 0 0 1)
(0.332434 0.943127 0 -0.943127 0.332434 0 0 0 1)
(0.273743 0.961803 0 -0.961803 0.273743 0 0 0 1)
(0.214014 0.976831 0 -0.976831 0.214014 0 0 0 1)
(0.153479 0.988152 0 -0.988152 0.153479 0 0 0 1)
(0.0923608 0.995726 0 -0.995726 0.0923608 0 0 0 1)
(6.12323e-17 0 1 0 1 0 -1 0 6.12323e-17)
(6.12323e-17 0 1 0 1 0 -1 0 6.12323e-17)
(6.12323e-17 0 1 0 1 0 -1 0 6.12323e-17)
(6.12323e-17 0 1 0 1 0 -1 0 6.12323e-17)
(6.12323e-17 0 1 0 1 0 -1 0 6.12323e-17)
(6.12323e-17 0 1 0 1 0 -1 0 6.12323e-17)
(6.12323e-17 0 1 0 1 0 -1 0 6.12323e-17)
(6.12323e-17 0 1 0 1 0 -1 0 6.12323e-17)
(6.12323e-17 0 1 0 1 0 -1 0 6.12323e-17)
(6.12323e-17 0 1 0 1 0 -1 0 6.12323e-17)
(6.12323e-17 0 1 0 1 0 -1 0 6.12323e-17)
(6.12323e-17 0 1 0 1 0 -1 0 6.12323e-17)
(6.12323e-17 0 1 0 1 0 -1 0 6.12323e-17)
(6.12323e-17 0 1 0 1 0 -1 0 6.12323e-17)
(6.12323e-17 0 1 0 1 0 -1 0 6.12323e-17)
(6.12323e-17 0 1 0 1 0 -1 0 6.12323e-17)
(6.12323e-17 0 1 0 1 0 -1 0 6.12323e-17)
(6.12323e-17 0 1 0 1 0 -1 0 6.12323e-17)
(6.12323e-17 0 1 0 1 0 -1 0 6.12323e-17)
(6.12323e-17 0 1 0 1 0 -1 0 6.12323e-17)
(6.12323e-17 0 1 0 1 0 -1 0 6.12323e-17)
(6.12323e-17 0 1 0 1 0 -1 0 6.12323e-17)
(6.12323e-17 0 1 0 1 0 -1 0 6.12323e-17)
(6.12323e-17 0 1 0 1 0 -1 0 6.12323e-17)
(6.12323e-17 0 1 0 1 0 -1 0 6.12323e-17)
(6.12323e-17 0 1 0 1 0 -1 0 6.12323e-17)
(6.12323e-17 0 1 0 1 0 -1 0 6.12323e-17)
(6.12323e-17 0 1 0 1 0 -1 0 6.12323e-17)
(6.12323e-17 0 1 0 1 0 -1 0 6.12323e-17)
(6.12323e-17 0 1 0 1 0 -1 0 6.12323e-17)
(6.12323e-17 0 1 0 1 0 -1 0 6.12323e-17)
(6.12323e-17 0 1 0 1 0 -1 0 6.12323e-17)
(6.12323e-17 0 1 0 1 0 -1 0 6.12323e-17)
(6.12323e-17 0 1 0 1 0 -1 0 6.12323e-17)
(6.12323e-17 0 1 0 1 0 -1 0 6.12323e-17)
(6.12323e-17 0 1 0 1 0 -1 0 6.12323e-17)
(6.12323e-17 0 1 0 1 0 -1 0 6.12323e-17)
(6.12323e-17 0 1 0 1 0 -1 0 6.12323e-17)
(6.12323e-17 0 1 0 1 0 -1 0 6.12323e-17)
(6.12323e-17 0 1 0 1 0 -1 0 6.12323e-17)
(6.12323e-17 0 1 0 1 0 -1 0 6.12323e-17)
(6.12323e-17 0 1 0 1 0 -1 0 6.12323e-17)
(6.12323e-17 0 1 0 1 0 -1 0 6.12323e-17)
(6.12323e-17 0 1 0 1 0 -1 0 6.12323e-17)
(6.12323e-17 0 1 0 1 0 -1 0 6.12323e-17)
(6.12323e-17 0 1 0 1 0 -1 0 6.12323e-17)
(6.12323e-17 0 1 0 1 0 -1 0 6.12323e-17)
(6.12323e-17 0 1 0 1 0 -1 0 6.12323e-17)
(6.12323e-17 0 1 0 1 0 -1 0 6.12323e-17)
(6.12323e-17 0 1 0 1 0 -1 0 6.12323e-17)
(0.93219 0.361968 0 -0.361968 0.93219 0 0 0 1)
(0.917283 0.398237 0 -0.398237 0.917283 0 0 0 1)
)
;

boundaryField
{
    left_0
    {
        type            calculated;
        value           uniform (6.12323e-17 -1 0 1 6.12323e-17 0 0 0 1);
    }
    left_1
    {
        type            calculated;
        value           uniform (6.12323e-17 0 1 0 1 0 -1 0 6.12323e-17);
    }
    right_0
    {
        type            calculated;
        value           uniform (9.26536e-05 1 0 -1 9.26536e-05 0 0 0 1);
    }
    right_1
    {
        type            calculated;
        value           uniform (6.12323e-17 0 1 0 1 0 -1 0 6.12323e-17);
    }
    beam
    {
        type            empty;
    }
}


// ************************************************************************* //
