/*--------------------------------*- C++ -*----------------------------------*\
| =========                 |                                                 |
| \\      /  F ield         | foam-extend: Open Source CFD                    |
|  \\    /   O peration     | Version:     4.1                                |
|   \\  /    A nd           | Web:         http://www.foam-extend.org         |
|    \\/     M anipulation  |                                                 |
\*---------------------------------------------------------------------------*/
FoamFile
{
    version     2.0;
    format      ascii;
    class       volVectorField;
    location    "0";
    object      refW;
}
// * * * * * * * * * * * * * * * * * * * * * * * * * * * * * * * * * * * * * //

dimensions      [0 1 0 0 0 0 0];

internalField   nonuniform List<vector> 
102
(
(-0.0303247 0.0307941 0)
(-0.0881314 0.0922656 0)
(-0.142161 0.153387 0)
(-0.192443 0.213927 0)
(-0.239019 0.273655 0)
(-0.281947 0.332345 0)
(-0.321297 0.389775 0)
(-0.357154 0.445726 0)
(-0.389616 0.499986 0)
(-0.418793 0.55235 0)
(-0.444808 0.602619 0)
(-0.467796 0.650602 0)
(-0.487903 0.696118 0)
(-0.505287 0.738993 0)
(-0.520116 0.779064 0)
(-0.532566 0.816181 0)
(-0.542826 0.850202 0)
(-0.551087 0.880997 0)
(-0.557554 0.90845 0)
(-0.562436 0.932459 0)
(-0.565948 0.952931 0)
(-0.56831 0.969788 0)
(-0.569746 0.982965 0)
(-0.570485 0.992415 0)
(-0.570757 0.9981 0)
(-0.570796 1 0)
(-0.570835 0.998106 0)
(-0.571107 0.992426 0)
(-0.571846 0.982982 0)
(-0.57328 0.969811 0)
(-0.57564 0.952959 0)
(-0.57915 0.932492 0)
(-0.58403 0.908488 0)
(-0.590494 0.881041 0)
(-0.598753 0.850251 0)
(-0.609009 0.816234 0)
(-0.621457 0.779121 0)
(-0.636282 0.739052 0)
(-0.653661 0.696184 0)
(-0.673763 0.650675 0)
(-0.696747 0.602694 0)
(-0.722759 0.552427 0)
(-0.751932 0.500064 0)
(-0.784387 0.445809 0)
(-0.820237 0.389863 0)
(-0.859583 0.332434 0)
(-0.902507 0.273743 0)
(-0.949079 0.214014 0)
(-0.999353 0.153479 0)
(-1.05337 0.0923608 0)
(-2.1107 1.02 -2.1107)
(0.980392 1.02 0.980392)
(0.941176 1.02 0.941176)
(0.901961 1.02 0.901961)
(0.862745 1.02 0.862745)
(0.823529 1.02 0.823529)
(0.784314 1.02 0.784314)
(0.745098 1.02 0.745098)
(0.705882 1.02 0.705882)
(0.666667 1.02 0.666667)
(0.627451 1.02 0.627451)
(0.588235 1.02 0.588235)
(0.54902 1.02 0.54902)
(0.509804 1.02 0.509804)
(0.470588 1.02 0.470588)
(0.431372 1.02 0.431372)
(0.392157 1.02 0.392157)
(0.352941 1.02 0.352941)
(0.313725 1.02 0.313725)
(0.27451 1.02 0.27451)
(0.235294 1.02 0.235294)
(0.196079 1.02 0.196079)
(0.156863 1.02 0.156863)
(0.117647 1.02 0.117647)
(0.0784315 1.02 0.0784315)
(0.039216 1.02 0.039216)
(-1e-06 1.02 -1e-06)
(-0.039215 1.02 -0.039215)
(-0.07843 1.02 -0.07843)
(-0.117645 1.02 -0.117645)
(-0.15686 1.02 -0.15686)
(-0.19608 1.02 -0.19608)
(-0.235295 1.02 -0.235295)
(-0.27451 1.02 -0.27451)
(-0.313725 1.02 -0.313725)
(-0.35294 1.02 -0.35294)
(-0.392155 1.02 -0.392155)
(-0.43137 1.02 -0.43137)
(-0.47059 1.02 -0.47059)
(-0.509805 1.02 -0.509805)
(-0.54902 1.02 -0.54902)
(-0.588235 1.02 -0.588235)
(-0.62745 1.02 -0.62745)
(-0.666665 1.02 -0.666665)
(-0.70588 1.02 -0.70588)
(-0.7451 1.02 -0.7451)
(-0.784315 1.02 -0.784315)
(-0.82353 1.02 -0.82353)
(-0.862745 1.02 -0.862745)
(-0.90196 1.02 -0.90196)
(-0.579207 0.93219 0)
(-0.582153 0.917283 0)
)
;

boundaryField
{
    left_0
    {
        type            calculated;
        value           uniform (0 0 0);
    }
    left_1
    {
        type            calculated;
        value           uniform (1 1.02 1);
    }
    right_0
    {
        type            calculated;
        value           uniform (0 0 0);
    }
    right_1
    {
        type            calculated;
        value           uniform (-1 1.02 -1);
    }
    beam
    {
        type            empty;
    }
}


// ************************************************************************* //
