/*--------------------------------*- C++ -*----------------------------------*\
| =========                 |                                                 |
| \\      /  F ield         | foam-extend: Open Source CFD                    |
|  \\    /   O peration     | Version:     4.1                                |
|   \\  /    A nd           | Web:         http://www.foam-extend.org         |
|    \\/     M anipulation  |                                                 |
\*---------------------------------------------------------------------------*/
FoamFile
{
    version     2.0;
    format      ascii;
    class       surfaceVectorField;
    location    "0";
    object      refWf;
}
// * * * * * * * * * * * * * * * * * * * * * * * * * * * * * * * * * * * * * //

dimensions      [0 1 0 0 0 0 0];

internalField   nonuniform List<vector> 
100
(
(-0.0597014 0.0615591 0)
(-0.115617 0.122885 0)
(-0.167768 0.183744 0)
(-0.216191 0.243907 0)
(-0.260935 0.303144 0)
(-0.302064 0.361231 0)
(-0.339657 0.417949 0)
(-0.373803 0.47308 0)
(-0.404608 0.526418 0)
(-0.432188 0.577759 0)
(-0.456671 0.626908 0)
(-0.4782 0.673679 0)
(-0.496926 0.717896 0)
(-0.51301 0.759389 0)
(-0.526627 0.798001 0)
(-0.537958 0.833587 0)
(-0.547194 0.866012 0)
(-0.554532 0.895147 0)
(-0.56018 0.920891 0)
(-0.56435 0.943142 0)
(-0.567259 0.961816 0)
(-0.569129 0.97684 0)
(-0.570188 0.988158 0)
(-0.570665 0.99573 0)
(-0.570791 0.999524 0)
(-0.570801 0.999527 0)
(-0.570928 0.995738 0)
(-0.571404 0.988173 0)
(-0.572461 0.97686 0)
(-0.574331 0.961841 0)
(-0.577238 0.943173 0)
(-0.581405 0.920927 0)
(-0.587051 0.895188 0)
(-0.594386 0.866058 0)
(-0.603619 0.833638 0)
(-0.614947 0.798056 0)
(-0.628561 0.759447 0)
(-0.644642 0.717957 0)
(-0.663361 0.673751 0)
(-0.684886 0.626982 0)
(-0.709366 0.577834 0)
(-0.736942 0.526495 0)
(-0.767743 0.473159 0)
(-0.80188 0.418036 0)
(-0.839468 0.36132 0)
(-0.880593 0.303232 0)
(-0.925333 0.243994 0)
(-0.973752 0.183831 0)
(-1.02589 0.122981 0)
(-1.0818 0.0616535 0)
(0.960784 1.02 0.960784)
(0.921569 1.02 0.921569)
(0.882353 1.02 0.882353)
(0.843137 1.02 0.843137)
(0.803922 1.02 0.803922)
(0.764706 1.02 0.764706)
(0.72549 1.02 0.72549)
(0.686275 1.02 0.686275)
(0.647059 1.02 0.647059)
(0.607843 1.02 0.607843)
(0.568627 1.02 0.568627)
(0.529412 1.02 0.529412)
(0.490196 1.02 0.490196)
(0.45098 1.02 0.45098)
(0.411765 1.02 0.411765)
(0.372549 1.02 0.372549)
(0.333333 1.02 0.333333)
(0.294118 1.02 0.294118)
(0.254902 1.02 0.254902)
(0.215686 1.02 0.215686)
(0.176471 1.02 0.176471)
(0.137255 1.02 0.137255)
(0.098039 1.02 0.098039)
(0.058824 1.02 0.058824)
(0.019608 1.02 0.019608)
(-0.01961 1.02 -0.01961)
(-0.05882 1.02 -0.05882)
(-0.09804 1.02 -0.09804)
(-0.13725 1.02 -0.13725)
(-0.17647 1.02 -0.17647)
(-0.21569 1.02 -0.21569)
(-0.2549 1.02 -0.2549)
(-0.29412 1.02 -0.29412)
(-0.33333 1.02 -0.33333)
(-0.37255 1.02 -0.37255)
(-0.41176 1.02 -0.41176)
(-0.45098 1.02 -0.45098)
(-0.4902 1.02 -0.4902)
(-0.52941 1.02 -0.52941)
(-0.56863 1.02 -0.56863)
(-0.60784 1.02 -0.60784)
(-0.64706 1.02 -0.64706)
(-0.68627 1.02 -0.68627)
(-0.72549 1.02 -0.72549)
(-0.76471 1.02 -0.76471)
(-0.80392 1.02 -0.80392)
(-0.84314 1.02 -0.84314)
(-0.88235 1.02 -0.88235)
(-0.92157 1.02 -0.92157)
(-0.96078 1.02 -0.96078)
)
;

boundaryField
{
    left_0
    {
        type            calculated;
        value           uniform (3.13822e-36 -3.13822e-36 0);
    }
    left_1
    {
        type            calculated;
        value           uniform (1 1.02 1);
    }
    right_0
    {
        type            calculated;
        value           uniform (-1.1415 9.26536e-05 0);
    }
    right_1
    {
        type            calculated;
        value           uniform (-1 1.02 -1);
    }
    beam
    {
        type            empty;
    }
}


// ************************************************************************* //
