/*--------------------------------*- C++ -*----------------------------------*\
| =========                 |                                                 |
| \\      /  F ield         | OpenFOAM: The Open Source CFD Toolbox           |
|  \\    /   O peration     | Version:  2312                                  |
|   \\  /    A nd           | Website:  www.openfoam.com                      |
|    \\/     M anipulation  |                                                 |
\*---------------------------------------------------------------------------*/
FoamFile
{
    version     2.0;
    format      ascii;
    arch        "LSB;label=32;scalar=64";
    class       surfaceVectorField;
    location    "0.09/beam";
    object      Gamma;
}
// * * * * * * * * * * * * * * * * * * * * * * * * * * * * * * * * * * * * * //

dimensions      [0 0 0 0 0 0 0];

oriented        oriented;

internalField   nonuniform List<vector> 
59
(
(0.0001875780544 -9.135733547e-19 -2.5355168e-08)
(0.0001875781061 -9.321376673e-19 -2.510248082e-08)
(0.0001875781924 -9.604350788e-19 -2.46557213e-08)
(0.0001875783134 -9.945436203e-19 -2.39777281e-08)
(0.0001875784694 -1.029043649e-18 -2.301885663e-08)
(0.0001875786607 -1.057193941e-18 -2.171906682e-08)
(0.0001875788875 -1.070817934e-18 -2.001033261e-08)
(0.0001875791502 -1.060708731e-18 -1.781916509e-08)
(0.0001875794492 -1.016691081e-18 -1.506880576e-08)
(0.0001875797846 -9.277371273e-19 -1.168116921e-08)
(0.0001875801566 -7.825026363e-19 -7.578263898e-09)
(0.0001875805655 -5.69815089e-19 -2.682856969e-09)
(0.0001875810111 -2.788219476e-19 3.081289008e-09)
(0.0001875814935 1.002944926e-19 9.789910979e-09)
(0.0001875820122 5.756762316e-19 1.751862755e-08)
(0.0001875825669 1.153044049e-18 2.634330084e-08)
(0.0001875831569 1.834961834e-18 3.633931325e-08)
(0.0001875837814 2.61958926e-18 4.757937863e-08)
(0.0001875844393 3.499811574e-18 6.012888438e-08)
(0.0001875851295 4.462549974e-18 7.403822744e-08)
(0.0001875858507 5.487247466e-18 8.933133665e-08)
(0.0001875866016 6.545105279e-18 1.059901278e-07)
(0.0001875873809 7.598241259e-18 1.239339701e-07)
(0.0001875881881 8.599590479e-18 1.430068238e-07)
(0.0001875890228 9.49154967e-18 1.629312459e-07)
(0.0001875898868 1.020804232e-17 1.833183011e-07)
(0.0001875907832 1.067388533e-17 2.036124835e-07)
(0.0001875917189 1.080790811e-17 2.231184682e-07)
(0.0001875927042 1.052480998e-17 2.409653045e-07)
(0.0001875937555 9.733974757e-18 2.56159641e-07)
(0.0001875948946 8.359473498e-18 2.67590436e-07)
(0.0001875961513 6.334404319e-18 2.74115445e-07)
(0.0001875975611 3.600042723e-18 2.746212643e-07)
(0.0001875991667 1.236830891e-19 2.681342173e-07)
(0.0001876010134 -4.094478791e-18 2.539317446e-07)
(0.0001876031478 -9.021215604e-18 2.316445143e-07)
(0.0001876056107 -1.457695048e-17 2.013868007e-07)
(0.0001876084357 -2.064074086e-17 1.637933299e-07)
(0.00018761164 -2.70381211e-17 1.201106321e-07)
(0.000187615226 -3.355284494e-17 7.21071652e-08)
(0.0001876191749 -3.991868095e-17 2.206492738e-08)
(0.0001876234548 -4.583778486e-17 -2.746671633e-08)
(0.0001876280184 -5.097835878e-17 -7.38023705e-08)
(0.0001876328174 -5.499714758e-17 -1.144795649e-07)
(0.0001876378022 -5.754353027e-17 -1.474603018e-07)
(0.0001876429369 -5.828136157e-17 -1.714713094e-07)
(0.0001876481946 -5.689953048e-17 -1.861477318e-07)
(0.0001876535677 -5.312846778e-17 -1.921817615e-07)
(0.000187659056 -4.675854911e-17 -1.91272843e-07)
(0.0001876646731 -3.764983373e-17 -1.859856139e-07)
(0.0001876704312 -2.576294923e-17 -1.794854871e-07)
(0.0001876763474 -1.116468987e-17 -1.752056002e-07)
(0.0001876824307 5.923790084e-18 -1.765477677e-07)
(0.0001876886901 2.512536401e-17 -1.866693925e-07)
(0.0001876951228 4.584954617e-17 -2.084565796e-07)
(0.000187701723 6.731582501e-17 -2.447593342e-07)
(0.0001877084682 8.853652935e-17 -2.988144665e-07)
(0.0001877153263 1.084389713e-16 -3.749949883e-07)
(0.0001877222361 1.260169623e-16 -4.795467139e-07)
)
;

boundaryField
{
    left
    {
        type            calculated;
        value           uniform (-0.0001875780372 -4.517131199e-14 2.543675659e-08);
    }
    right
    {
        type            calculated;
        value           uniform (0.0001877291049 -4.502637591e-14 -6.216867219e-07);
    }
    beam
    {
        type            empty;
        value           nonuniform List<vector> 0();
    }
}


// ************************************************************************* //
