/*--------------------------------*- C++ -*----------------------------------*\
| =========                 |                                                 |
| \\      /  F ield         | OpenFOAM: The Open Source CFD Toolbox           |
|  \\    /   O peration     | Version:  2312                                  |
|   \\  /    A nd           | Website:  www.openfoam.com                      |
|    \\/     M anipulation  |                                                 |
\*---------------------------------------------------------------------------*/
FoamFile
{
    version     2.0;
    format      ascii;
    arch        "LSB;label=32;scalar=64";
    class       surfaceVectorField;
    location    "0.09/beam";
    object      K;
}
// * * * * * * * * * * * * * * * * * * * * * * * * * * * * * * * * * * * * * //

dimensions      [0 -1 0 0 0 0 0];

oriented        oriented;

internalField   nonuniform List<vector> 
59
(
(2.101221504e-19 -0.0002811572919 1.007775362e-14)
(4.195850961e-19 -0.000560464337 2.029420174e-14)
(6.279000246e-19 -0.0008359003555 3.077015113e-14)
(8.345872249e-19 -0.001105111415 4.159158318e-14)
(1.039474579e-18 -0.001365263033 5.279299583e-14)
(1.242433318e-18 -0.001612913528 6.434133516e-14)
(1.443728005e-18 -0.001843912266 7.612110732e-14)
(1.644126359e-18 -0.002053325217 8.792042338e-14)
(1.843585396e-18 -0.002235386623 9.942027729e-14)
(2.044368328e-18 -0.002383473567 1.101844817e-13)
(2.24779552e-18 -0.002490099158 1.196527065e-13)
(2.454320113e-18 -0.00254691727 1.271399832e-13)
(2.664647535e-18 -0.002544732261 1.318393975e-13)
(2.879145756e-18 -0.002473507263 1.328297165e-13)
(3.097464259e-18 -0.002322367606 1.290901912e-13)
(3.318254304e-18 -0.002079600115 1.195233869e-13)
(3.540238955e-18 -0.001732654389 1.029859086e-13)
(3.759863098e-18 -0.00126816018 7.833042083e-14)
(3.974058818e-18 -0.0006719826629 4.445915879e-14)
(4.181472754e-18 7.065411523e-05 3.860184863e-16)
(4.382759582e-18 0.0009749378315 -5.468888403e-14)
(4.58339998e-18 0.002056055786 -1.212902546e-13)
(4.79599129e-18 0.003328715546 -1.995778091e-13)
(5.044096068e-18 0.00480631524 -2.892409907e-13)
(5.364700048e-18 0.0064997876 -3.893857638e-13)
(5.812280887e-18 0.008416410554 -4.984355798e-13)
(6.460591887e-18 0.01055823423 -6.140318316e-13)
(7.405437409e-18 0.01292038538 -7.329504546e-13)
(8.764631953e-18 0.01548932022 -8.510458375e-13)
(1.090834273e-17 0.01824117517 -9.63198519e-13)
(1.38074144e-17 0.02114043642 -1.063366985e-12)
(1.733999168e-17 0.0241391163 -1.144718948e-12)
(2.196298921e-17 0.02717673857 -1.199726572e-12)
(2.788081776e-17 0.03018127241 -1.220355804e-12)
(3.528156889e-17 0.03307129435 -1.198392489e-12)
(4.434201877e-17 0.03575933501 -1.125807342e-12)
(5.517425361e-17 0.03815651036 -9.951953358e-13)
(6.782248689e-17 0.04017808163 -8.002613607e-13)
(8.217754892e-17 0.04174972276 -5.363454863e-13)
(9.797000975e-17 0.04281379845 -2.009505429e-13)
(1.1467032e-16 0.04333509678 2.057497304e-13)
(1.315111739e-16 0.04330515385 6.804591281e-13)
(1.474211506e-16 0.0427444879 1.216395836e-12)
(1.611384887e-16 0.04170211895 1.803041154e-12)
(1.712548887e-16 0.04025198563 2.426035068e-12)
(1.764333968e-16 0.03848636091 3.067215814e-12)
(1.755815693e-16 0.03650658961 3.704838345e-12)
(1.680837906e-16 0.03441220509 4.313943136e-12)
(1.53979349e-16 0.03228950058 4.866917632e-12)
(1.340241551e-16 0.03020116049 5.334214061e-12)
(1.097053873e-16 0.02817814457 5.68529149e-12)
(8.301463046e-17 0.02621487895 5.889760343e-12)
(5.629011625e-17 0.02426794959 5.918824187e-12)
(3.184732123e-17 0.02225763134 5.746997648e-12)
(1.184474294e-17 0.02007074798 5.354150895e-12)
(-2.037141384e-18 0.0175623793 4.727743001e-12)
(-8.806204103e-18 0.01455392543 3.86502163e-12)
(-8.675146234e-18 0.01082468059 2.774642246e-12)
(-3.879242705e-18 0.006095180022 1.47677409e-12)
)
;

boundaryField
{
    left
    {
        type            calculated;
        value           uniform (-8.675089886e-34 -9.178259891e-35 9.585527376e-35);
    }
    right
    {
        type            calculated;
        value           uniform (1.319245853e-29 4.064256765e-29 4.759731186e-31);
    }
    beam
    {
        type            empty;
        value           nonuniform List<vector> 0();
    }
}


// ************************************************************************* //
