/*--------------------------------*- C++ -*----------------------------------*\
| =========                 |                                                 |
| \\      /  F ield         | OpenFOAM: The Open Source CFD Toolbox           |
|  \\    /   O peration     | Version:  2312                                  |
|   \\  /    A nd           | Website:  www.openfoam.com                      |
|    \\/     M anipulation  |                                                 |
\*---------------------------------------------------------------------------*/
FoamFile
{
    version     2.0;
    format      ascii;
    arch        "LSB;label=32;scalar=64";
    class       surfaceVectorField;
    location    "0.09/beam";
    object      M;
}
// * * * * * * * * * * * * * * * * * * * * * * * * * * * * * * * * * * * * * //

dimensions      [1 2 -2 0 0 0 0];

oriented        oriented;

internalField   nonuniform List<vector> 
59
(
(-5.161671805e-22 -1.695901423e-07 6.077263409e-18)
(-1.013427954e-21 -3.380642416e-07 1.223819524e-17)
(-1.48070926e-21 -5.042033919e-07 1.855567522e-17)
(-1.921343042e-21 -6.665877338e-07 2.508157866e-17)
(-2.357413238e-21 -8.235075477e-07 3.183672931e-17)
(-2.830902708e-21 -9.728868594e-07 3.880120784e-17)
(-3.400756309e-21 -1.112222064e-06 4.590537206e-17)
(-4.135322262e-21 -1.238537025e-06 5.302143979e-17)
(-5.100086314e-21 -1.348353916e-06 5.99570217e-17)
(-6.340783878e-21 -1.437677887e-06 6.644905091e-17)
(-7.863075697e-21 -1.501992951e-06 7.21595839e-17)
(-9.611308758e-21 -1.53626484e-06 7.667550168e-17)
(-1.144886512e-20 -1.534946873e-06 7.951013385e-17)
(-1.314385413e-20 -1.491984952e-06 8.010785898e-17)
(-1.436510442e-20 -1.400819627e-06 7.785303364e-17)
(-1.469335727e-20 -1.254385675e-06 7.20837631e-17)
(-1.365079591e-20 -1.04511287e-06 6.211043457e-17)
(-1.075248329e-20 -7.649364664e-07 4.724106273e-17)
(-5.577256645e-21 -4.053305345e-07 2.681356682e-17)
(2.153098478e-21 4.261757315e-08 2.332214998e-19)
(1.249940367e-20 5.880688508e-07 -3.298237122e-17)
(2.525942466e-20 1.240184065e-06 -7.31496259e-17)
(3.998944369e-20 2.007834615e-06 -1.203648031e-16)
(5.613111518e-20 2.899102064e-06 -1.744405082e-16)
(7.329154781e-20 3.920580884e-06 -2.348374134e-16)
(9.172852689e-20 5.076661016e-06 -3.006045275e-16)
(1.130759769e-19 6.36857907e-06 -3.703191607e-16)
(1.413440335e-19 7.793395574e-06 -4.420366294e-16)
(1.841976391e-19 9.342941106e-06 -5.132564374e-16)
(2.545230743e-19 1.100282149e-05 -5.808907432e-16)
(3.722269304e-19 1.275161528e-05 -6.412956237e-16)
(5.661711345e-19 1.4560377e-05 -6.903502834e-16)
(8.762082559e-19 1.639262823e-05 -7.235145251e-16)
(1.355253257e-18 1.820492098e-05 -7.359429892e-16)
(2.071064749e-18 1.994814175e-05 -7.226819062e-16)
(3.107647525e-18 2.156953024e-05 -6.78889298e-16)
(4.565782052e-18 2.301547286e-05 -6.00100065e-16)
(6.562338453e-18 2.423485635e-05 -4.825189866e-16)
(9.227521977e-18 2.518284827e-05 -3.233375919e-16)
(1.269946209e-17 2.582468383e-05 -1.210523958e-16)
(1.711505857e-17 2.613912369e-05 1.242286523e-16)
(2.25966225e-17 2.612106253e-05 4.105139504e-16)
(2.923375632e-17 2.578287668e-05 7.337094906e-16)
(3.706110056e-17 2.515413432e-05 1.087467735e-15)
(4.603321889e-17 2.42794342e-05 1.463125214e-15)
(5.599925385e-17 2.321443409e-05 1.849727101e-15)
(6.668112619e-17 2.202026376e-05 2.234159695e-15)
(7.765932056e-17 2.075696034e-05 2.601373501e-15)
(8.837107304e-17 1.94765747e-05 2.934722227e-15)
(9.812358485e-17 1.821691719e-05 3.216395706e-15)
(1.061249926e-16 1.699666231e-05 3.427987584e-15)
(1.115315384e-16 1.581244798e-05 3.551184613e-15)
(1.135102661e-16 1.463808744e-05 3.568634768e-15)
(1.11312675e-16 1.342549162e-05 3.464981561e-15)
(1.043576249e-16 1.210639419e-05 3.22809502e-15)
(9.231873045e-17 1.059338132e-05 2.850416377e-15)
(7.521157617e-17 8.778724067e-06 2.330282272e-15)
(5.346788433e-17 6.529295788e-06 1.672898926e-15)
(2.797064021e-17 3.676527257e-06 8.90404439e-16)
)
;

boundaryField
{
    left
    {
        type            calculated;
        value           uniform (-1.046529273e-36 -5.536197871e-38 5.795499412e-38);
    }
    right
    {
        type            calculated;
        value           uniform (1.591312487e-32 2.451502781e-32 -3.763900655e-34);
    }
    beam
    {
        type            empty;
        value           nonuniform List<vector> 0();
    }
}


// ************************************************************************* //
