/*--------------------------------*- C++ -*----------------------------------*\
| =========                 |                                                 |
| \\      /  F ield         | OpenFOAM: The Open Source CFD Toolbox           |
|  \\    /   O peration     | Version:  2312                                  |
|   \\  /    A nd           | Website:  www.openfoam.com                      |
|    \\/     M anipulation  |                                                 |
\*---------------------------------------------------------------------------*/
FoamFile
{
    version     2.0;
    format      ascii;
    arch        "LSB;label=32;scalar=64";
    class       pointVectorField;
    location    "0.09/beam";
    object      pointW;
}
// * * * * * * * * * * * * * * * * * * * * * * * * * * * * * * * * * * * * * //

dimensions      [0 1 0 0 0 0 0];

internalField   nonuniform List<vector> 
1952
(
(-5.214738813e-07 3.529943133e-17 3.032559186e-11)
(-5.114537606e-07 3.45860493e-17 2.974287917e-11)
(-4.817792894e-07 3.252606517e-17 2.801719447e-11)
(-4.335898881e-07 2.949029909e-17 2.521480073e-11)
(-3.687380925e-07 2.51534904e-17 2.144342863e-11)
(-2.897152442e-07 1.95156391e-17 1.684796009e-11)
(-1.995589286e-07 1.344410694e-17 1.160504093e-11)
(-1.017344699e-07 6.938893904e-18 5.916192774e-12)
(-3.684526238e-17 0 -3.529462818e-17)
(1.017344698e-07 -6.938893904e-18 -5.916261946e-12)
(1.995589285e-07 -1.344410694e-17 -1.160510598e-11)
(2.897152442e-07 -1.95156391e-17 -1.684801864e-11)
(3.687380925e-07 -2.51534904e-17 -2.14434785e-11)
(4.33589888e-07 -2.949029909e-17 -2.521483976e-11)
(4.817792894e-07 -3.252606517e-17 -2.801722179e-11)
(5.114537606e-07 -3.45860493e-17 -2.974289304e-11)
(5.214738813e-07 -3.529943133e-17 -3.032559186e-11)
(5.114537606e-07 -3.45860493e-17 -2.974287917e-11)
(4.817792894e-07 -3.252606517e-17 -2.801719447e-11)
(4.335898881e-07 -2.949029909e-17 -2.521480073e-11)
(3.687380925e-07 -2.51534904e-17 -2.144342863e-11)
(2.897152442e-07 -1.95156391e-17 -1.684796009e-11)
(1.995589286e-07 -1.344410694e-17 -1.160504093e-11)
(1.017344699e-07 -6.938893904e-18 -5.916192774e-12)
(3.684531184e-17 0 3.529462818e-17)
(-1.017344698e-07 6.938893904e-18 5.916261946e-12)
(-1.995589285e-07 1.344410694e-17 1.160510598e-11)
(-2.897152442e-07 1.95156391e-17 1.684801864e-11)
(-3.687380925e-07 2.51534904e-17 2.14434785e-11)
(-4.33589888e-07 2.949029909e-17 2.521483976e-11)
(-4.817792894e-07 3.252606517e-17 2.801722179e-11)
(-5.114537606e-07 3.45860493e-17 2.974289304e-11)
(7.80804213e-06 6.32343453e-16 -5.636431509e-06)
(7.817583865e-06 6.315477655e-16 -5.636432035e-06)
(7.845841602e-06 6.294877813e-16 -5.636433591e-06)
(7.89173032e-06 6.266688557e-16 -5.636436119e-06)
(7.953485928e-06 6.22332047e-16 -5.63643952e-06)
(8.028736027e-06 6.166941957e-16 -5.636443665e-06)
(8.114588053e-06 6.106226635e-16 -5.636448394e-06)
(8.207742126e-06 6.036837696e-16 -5.636453524e-06)
(8.304619537e-06 5.967448757e-16 -5.63645886e-06)
(8.401496947e-06 5.898059818e-16 -5.636464196e-06)
(8.49465102e-06 5.837344497e-16 -5.636469327e-06)
(8.580503047e-06 5.776629175e-16 -5.636474056e-06)
(8.655753146e-06 5.720250662e-16 -5.6364782e-06)
(8.717508753e-06 5.676882575e-16 -5.636481602e-06)
(8.763397472e-06 5.64435651e-16 -5.636484129e-06)
(8.791655209e-06 5.623756669e-16 -5.636485686e-06)
(8.801196944e-06 5.617448465e-16 -5.636486211e-06)
(8.791655209e-06 5.623756669e-16 -5.636485686e-06)
(8.763397472e-06 5.64435651e-16 -5.636484129e-06)
(8.717508753e-06 5.676882575e-16 -5.636481602e-06)
(8.655753146e-06 5.720250662e-16 -5.6364782e-06)
(8.580503047e-06 5.776629175e-16 -5.636474056e-06)
(8.49465102e-06 5.837344497e-16 -5.636469327e-06)
(8.401496947e-06 5.898059818e-16 -5.636464196e-06)
(8.304619537e-06 5.967448757e-16 -5.63645886e-06)
(8.207742127e-06 6.036837696e-16 -5.636453524e-06)
(8.114588053e-06 6.106226635e-16 -5.636448394e-06)
(8.028736027e-06 6.166941957e-16 -5.636443665e-06)
(7.953485928e-06 6.22332047e-16 -5.63643952e-06)
(7.891730321e-06 6.266688557e-16 -5.636436119e-06)
(7.845841602e-06 6.294877813e-16 -5.636433591e-06)
(7.817583865e-06 6.315477655e-16 -5.636432035e-06)
(1.618725631e-05 2.492141886e-16 -1.072254861e-05)
(1.619536604e-05 2.484991379e-16 -1.072254897e-05)
(1.621938289e-05 2.46547574e-16 -1.072255006e-05)
(1.625838469e-05 2.432949675e-16 -1.072255182e-05)
(1.63108721e-05 2.389581588e-16 -1.072255419e-05)
(1.637482876e-05 2.333203075e-16 -1.072255708e-05)
(1.644779623e-05 2.272487754e-16 -1.072256037e-05)
(1.652696987e-05 2.203098814e-16 -1.072256395e-05)
(1.660930805e-05 2.133709875e-16 -1.072256766e-05)
(1.669164622e-05 2.064320936e-16 -1.072257138e-05)
(1.677081986e-05 2.003605615e-16 -1.072257496e-05)
(1.684378733e-05 1.942890293e-16 -1.072257825e-05)
(1.690774399e-05 1.88651178e-16 -1.072258114e-05)
(1.69602314e-05 1.843143693e-16 -1.072258351e-05)
(1.69992332e-05 1.814954437e-16 -1.072258527e-05)
(1.702325006e-05 1.793270393e-16 -1.072258635e-05)
(1.703135978e-05 1.786166047e-16 -1.072258672e-05)
(1.702325006e-05 1.793270393e-16 -1.072258635e-05)
(1.69992332e-05 1.814954437e-16 -1.072258527e-05)
(1.69602314e-05 1.843143693e-16 -1.072258351e-05)
(1.690774399e-05 1.88651178e-16 -1.072258114e-05)
(1.684378733e-05 1.942890293e-16 -1.072257825e-05)
(1.677081986e-05 2.003605615e-16 -1.072257496e-05)
(1.669164622e-05 2.064320936e-16 -1.072257138e-05)
(1.660930805e-05 2.133709875e-16 -1.072256766e-05)
(1.652696987e-05 2.203098814e-16 -1.072256395e-05)
(1.644779623e-05 2.272487754e-16 -1.072256037e-05)
(1.637482876e-05 2.333203075e-16 -1.072255708e-05)
(1.63108721e-05 2.389581588e-16 -1.072255419e-05)
(1.625838469e-05 2.432949675e-16 -1.072255182e-05)
(1.621938289e-05 2.46547574e-16 -1.072255006e-05)
(1.619536604e-05 2.484991379e-16 -1.072254897e-05)
(2.461570753e-05 -9.400613794e-17 -1.471167969e-05)
(2.462144135e-05 -9.475926988e-17 -1.471167985e-05)
(2.463842202e-05 -9.671083379e-17 -1.471168031e-05)
(2.466599751e-05 -9.974659987e-17 -1.471168107e-05)
(2.470310774e-05 -1.040834086e-16 -1.471168208e-05)
(2.47483271e-05 -1.097212599e-16 -1.471168331e-05)
(2.479991737e-05 -1.15792792e-16 -1.471168471e-05)
(2.48558956e-05 -1.222980051e-16 -1.471168624e-05)
(2.491411126e-05 -1.29236899e-16 -1.471168782e-05)
(2.497232692e-05 -1.361757929e-16 -1.471168941e-05)
(2.502830514e-05 -1.426810059e-16 -1.471169094e-05)
(2.507989542e-05 -1.487525381e-16 -1.471169234e-05)
(2.512511478e-05 -1.543903894e-16 -1.471169357e-05)
(2.516222501e-05 -1.587271981e-16 -1.471169458e-05)
(2.51898005e-05 -1.617629641e-16 -1.471169534e-05)
(2.520678116e-05 -1.639313685e-16 -1.47116958e-05)
(2.521251499e-05 -1.64601981e-16 -1.471169595e-05)
(2.520678116e-05 -1.639313685e-16 -1.47116958e-05)
(2.51898005e-05 -1.617629641e-16 -1.471169534e-05)
(2.516222501e-05 -1.587271981e-16 -1.471169458e-05)
(2.512511478e-05 -1.543903894e-16 -1.471169357e-05)
(2.507989542e-05 -1.487525381e-16 -1.471169234e-05)
(2.502830514e-05 -1.426810059e-16 -1.471169094e-05)
(2.497232692e-05 -1.361757929e-16 -1.471168941e-05)
(2.491411126e-05 -1.29236899e-16 -1.471168782e-05)
(2.48558956e-05 -1.222980051e-16 -1.471168624e-05)
(2.479991737e-05 -1.15792792e-16 -1.471168471e-05)
(2.47483271e-05 -1.097212599e-16 -1.471168331e-05)
(2.470310774e-05 -1.040834086e-16 -1.471168208e-05)
(2.466599751e-05 -9.974659987e-17 -1.471168107e-05)
(2.463842202e-05 -9.671083379e-17 -1.471168031e-05)
(2.462144135e-05 -9.475926988e-17 -1.471167985e-05)
(3.309250639e-05 -3.767437524e-16 -1.706493406e-05)
(3.309493761e-05 -3.775191965e-16 -1.706493405e-05)
(3.310213765e-05 -3.794707604e-16 -1.7064934e-05)
(3.311383004e-05 -3.825065265e-16 -1.706493393e-05)
(3.312956529e-05 -3.868433351e-16 -1.706493383e-05)
(3.314873892e-05 -3.924811864e-16 -1.706493372e-05)
(3.317061391e-05 -3.985527186e-16 -1.706493358e-05)
(3.319434945e-05 -4.050579316e-16 -1.706493344e-05)
(3.321903369e-05 -4.119968255e-16 -1.706493329e-05)
(3.324371794e-05 -4.189357194e-16 -1.706493314e-05)
(3.326745348e-05 -4.254409325e-16 -1.706493299e-05)
(3.328932847e-05 -4.315124646e-16 -1.706493286e-05)
(3.33085021e-05 -4.371503159e-16 -1.706493274e-05)
(3.332423735e-05 -4.414871246e-16 -1.706493265e-05)
(3.333592974e-05 -4.445228907e-16 -1.706493257e-05)
(3.334312978e-05 -4.466912951e-16 -1.706493253e-05)
(3.3345561e-05 -4.473376444e-16 -1.706493252e-05)
(3.334312978e-05 -4.466912951e-16 -1.706493253e-05)
(3.333592974e-05 -4.445228907e-16 -1.706493257e-05)
(3.332423735e-05 -4.414871246e-16 -1.706493265e-05)
(3.33085021e-05 -4.371503159e-16 -1.706493274e-05)
(3.328932847e-05 -4.315124646e-16 -1.706493286e-05)
(3.326745348e-05 -4.254409325e-16 -1.706493299e-05)
(3.324371794e-05 -4.189357194e-16 -1.706493314e-05)
(3.321903369e-05 -4.119968255e-16 -1.706493329e-05)
(3.319434945e-05 -4.050579316e-16 -1.706493344e-05)
(3.317061391e-05 -3.985527186e-16 -1.706493358e-05)
(3.314873892e-05 -3.924811864e-16 -1.706493372e-05)
(3.312956529e-05 -3.868433351e-16 -1.706493383e-05)
(3.311383004e-05 -3.825065265e-16 -1.706493393e-05)
(3.310213765e-05 -3.794707604e-16 -1.7064934e-05)
(3.309493761e-05 -3.775191965e-16 -1.706493405e-05)
(4.161624489e-05 -5.777695714e-16 -1.725585563e-05)
(4.161447279e-05 -5.78421859e-16 -1.72558556e-05)
(4.160922476e-05 -5.806986836e-16 -1.725585551e-05)
(4.16007023e-05 -5.833007688e-16 -1.725585537e-05)
(4.158923303e-05 -5.876375775e-16 -1.725585519e-05)
(4.157525757e-05 -5.932754288e-16 -1.725585496e-05)
(4.155931312e-05 -5.993469609e-16 -1.72558547e-05)
(4.154201252e-05 -6.062858549e-16 -1.725585441e-05)
(4.152402043e-05 -6.132247488e-16 -1.725585412e-05)
(4.150602834e-05 -6.201636427e-16 -1.725585383e-05)
(4.148872775e-05 -6.262351748e-16 -1.725585354e-05)
(4.147278329e-05 -6.32306707e-16 -1.725585328e-05)
(4.145880783e-05 -6.379445583e-16 -1.725585306e-05)
(4.144733856e-05 -6.42281367e-16 -1.725585287e-05)
(4.14388161e-05 -6.457508139e-16 -1.725585273e-05)
(4.143356807e-05 -6.475939576e-16 -1.725585264e-05)
(4.143179597e-05 -6.483617086e-16 -1.725585261e-05)
(4.143356807e-05 -6.475939576e-16 -1.725585264e-05)
(4.14388161e-05 -6.457508139e-16 -1.725585273e-05)
(4.144733856e-05 -6.42281367e-16 -1.725585287e-05)
(4.145880783e-05 -6.379445583e-16 -1.725585306e-05)
(4.147278329e-05 -6.32306707e-16 -1.725585328e-05)
(4.148872775e-05 -6.262351748e-16 -1.725585354e-05)
(4.150602834e-05 -6.201636427e-16 -1.725585383e-05)
(4.152402043e-05 -6.132247488e-16 -1.725585412e-05)
(4.154201252e-05 -6.062858549e-16 -1.725585441e-05)
(4.155931312e-05 -5.993469609e-16 -1.72558547e-05)
(4.157525757e-05 -5.932754288e-16 -1.725585496e-05)
(4.158923303e-05 -5.876375775e-16 -1.725585519e-05)
(4.16007023e-05 -5.833007688e-16 -1.725585537e-05)
(4.160922476e-05 -5.806986836e-16 -1.725585551e-05)
(4.161447279e-05 -5.78421859e-16 -1.72558556e-05)
(5.018488275e-05 -6.75139257e-16 -1.477604366e-05)
(5.017804332e-05 -6.757832141e-16 -1.477604392e-05)
(5.015778843e-05 -6.778431982e-16 -1.477604469e-05)
(5.012489582e-05 -6.808789643e-16 -1.477604594e-05)
(5.008062996e-05 -6.85215773e-16 -1.477604761e-05)
(5.002669137e-05 -6.908536243e-16 -1.477604965e-05)
(4.996515342e-05 -6.969251565e-16 -1.477605198e-05)
(4.989838143e-05 -7.034303695e-16 -1.477605451e-05)
(4.982894059e-05 -7.103692634e-16 -1.477605714e-05)
(4.975949974e-05 -7.173081573e-16 -1.477605976e-05)
(4.969272775e-05 -7.238133704e-16 -1.477606229e-05)
(4.96311898e-05 -7.298849025e-16 -1.477606462e-05)
(4.957725122e-05 -7.355227538e-16 -1.477606666e-05)
(4.953298536e-05 -7.398595625e-16 -1.477606834e-05)
(4.950009274e-05 -7.428953286e-16 -1.477606958e-05)
(4.947983786e-05 -7.449553127e-16 -1.477607035e-05)
(4.947299843e-05 -7.457306127e-16 -1.477607061e-05)
(4.947983786e-05 -7.449553127e-16 -1.477607035e-05)
(4.950009274e-05 -7.428953286e-16 -1.477606958e-05)
(4.953298536e-05 -7.398595625e-16 -1.477606834e-05)
(4.957725122e-05 -7.355227538e-16 -1.477606666e-05)
(4.96311898e-05 -7.298849025e-16 -1.477606462e-05)
(4.969272775e-05 -7.238133704e-16 -1.477606229e-05)
(4.975949974e-05 -7.173081573e-16 -1.477605976e-05)
(4.982894059e-05 -7.103692634e-16 -1.477605714e-05)
(4.989838143e-05 -7.034303695e-16 -1.477605451e-05)
(4.996515342e-05 -6.969251565e-16 -1.477605198e-05)
(5.002669137e-05 -6.908536243e-16 -1.477604965e-05)
(5.008062996e-05 -6.85215773e-16 -1.477604761e-05)
(5.012489582e-05 -6.808789643e-16 -1.477604594e-05)
(5.015778843e-05 -6.778431982e-16 -1.477604469e-05)
(5.017804332e-05 -6.757832141e-16 -1.477604392e-05)
(5.879561871e-05 -6.462637579e-16 -9.141955203e-06)
(5.878289754e-05 -6.470518565e-16 -9.141956214e-06)
(5.874522394e-05 -6.490034204e-16 -9.141959208e-06)
(5.868404446e-05 -6.518223461e-16 -9.14196407e-06)
(5.860171104e-05 -6.561591548e-16 -9.141970613e-06)
(5.850138657e-05 -6.617970061e-16 -9.141978586e-06)
(5.838692746e-05 -6.678685383e-16 -9.141987682e-06)
(5.826273317e-05 -6.748074322e-16 -9.141997552e-06)
(5.813357487e-05 -6.817463261e-16 -9.142007817e-06)
(5.800441657e-05 -6.8868522e-16 -9.142018081e-06)
(5.788022227e-05 -6.947567521e-16 -9.142027951e-06)
(5.776576317e-05 -7.008282843e-16 -9.142037048e-06)
(5.76654387e-05 -7.064661356e-16 -9.142045021e-06)
(5.758310527e-05 -7.108029443e-16 -9.142051564e-06)
(5.75219258e-05 -7.140555508e-16 -9.142056426e-06)
(5.748425219e-05 -7.162239551e-16 -9.14205942e-06)
(5.747153102e-05 -7.168558775e-16 -9.142060431e-06)
(5.748425219e-05 -7.162239551e-16 -9.14205942e-06)
(5.75219258e-05 -7.140555508e-16 -9.142056426e-06)
(5.758310527e-05 -7.108029443e-16 -9.142051564e-06)
(5.76654387e-05 -7.064661356e-16 -9.142045021e-06)
(5.776576317e-05 -7.008282843e-16 -9.142037048e-06)
(5.788022227e-05 -6.947567521e-16 -9.142027951e-06)
(5.800441657e-05 -6.8868522e-16 -9.142018081e-06)
(5.813357487e-05 -6.817463261e-16 -9.142007817e-06)
(5.826273317e-05 -6.748074322e-16 -9.141997552e-06)
(5.838692746e-05 -6.678685383e-16 -9.141987682e-06)
(5.850138657e-05 -6.617970061e-16 -9.141978586e-06)
(5.860171104e-05 -6.561591548e-16 -9.141970613e-06)
(5.868404446e-05 -6.518223461e-16 -9.14196407e-06)
(5.874522394e-05 -6.490034204e-16 -9.141959208e-06)
(5.878289754e-05 -6.470518565e-16 -9.141956214e-06)
(6.744475223e-05 -4.681518097e-16 9.692544463e-08)
(6.742539995e-05 -4.688090194e-16 9.69230465e-08)
(6.736808841e-05 -4.709774237e-16 9.691594449e-08)
(6.72750182e-05 -4.740131898e-16 9.690441129e-08)
(6.714976722e-05 -4.783499985e-16 9.688889028e-08)
(6.699714709e-05 -4.839878498e-16 9.686997771e-08)
(6.682302444e-05 -4.90059382e-16 9.684840055e-08)
(6.663409197e-05 -4.961309141e-16 9.682498818e-08)
(6.643760794e-05 -5.03069808e-16 9.680064003e-08)
(6.624112391e-05 -5.100087019e-16 9.677629188e-08)
(6.605219145e-05 -5.169475958e-16 9.675287951e-08)
(6.587806879e-05 -5.23019128e-16 9.673130236e-08)
(6.572544866e-05 -5.286569793e-16 9.67123898e-08)
(6.560019768e-05 -5.32993788e-16 9.669686879e-08)
(6.550712748e-05 -5.360295541e-16 9.668533561e-08)
(6.544981593e-05 -5.37981118e-16 9.667823361e-08)
(6.543046365e-05 -5.387472167e-16 9.66758355e-08)
(6.544981593e-05 -5.37981118e-16 9.667823363e-08)
(6.550712748e-05 -5.360295541e-16 9.668533564e-08)
(6.560019768e-05 -5.32993788e-16 9.669686883e-08)
(6.572544866e-05 -5.286569793e-16 9.671238985e-08)
(6.587806879e-05 -5.23019128e-16 9.673130242e-08)
(6.605219145e-05 -5.169475958e-16 9.675287957e-08)
(6.624112391e-05 -5.100087019e-16 9.677629194e-08)
(6.643760794e-05 -5.03069808e-16 9.68006401e-08)
(6.663409197e-05 -4.961309141e-16 9.682498825e-08)
(6.682302444e-05 -4.90059382e-16 9.684840062e-08)
(6.699714709e-05 -4.839878498e-16 9.686997776e-08)
(6.714976722e-05 -4.783499985e-16 9.688889033e-08)
(6.72750182e-05 -4.740131898e-16 9.690441133e-08)
(6.736808841e-05 -4.709774237e-16 9.691594452e-08)
(6.742539995e-05 -4.688090194e-16 9.692304651e-08)
(7.612753776e-05 -1.178126809e-16 1.334839034e-05)
(7.610088829e-05 -1.185032975e-16 1.334838575e-05)
(7.602196618e-05 -1.205632816e-16 1.334837218e-05)
(7.589380183e-05 -1.235990477e-16 1.334835012e-05)
(7.572132225e-05 -1.279358564e-16 1.334832045e-05)
(7.551115338e-05 -1.335737077e-16 1.334828429e-05)
(7.527137399e-05 -1.396452398e-16 1.334824303e-05)
(7.501120044e-05 -1.45716772e-16 1.334819827e-05)
(7.474062784e-05 -1.526556659e-16 1.334815171e-05)
(7.447005523e-05 -1.595945598e-16 1.334810516e-05)
(7.420988168e-05 -1.665334537e-16 1.334806039e-05)
(7.397010229e-05 -1.726049859e-16 1.334801914e-05)
(7.375993342e-05 -1.782428372e-16 1.334798298e-05)
(7.358745384e-05 -1.825796458e-16 1.33479533e-05)
(7.345928949e-05 -1.856154119e-16 1.334793125e-05)
(7.338036738e-05 -1.876753961e-16 1.334791767e-05)
(7.335371791e-05 -1.884145949e-16 1.334791308e-05)
(7.338036738e-05 -1.876753961e-16 1.334791767e-05)
(7.345928949e-05 -1.856154119e-16 1.334793125e-05)
(7.358745384e-05 -1.825796458e-16 1.33479533e-05)
(7.375993342e-05 -1.782428372e-16 1.334798298e-05)
(7.397010229e-05 -1.726049859e-16 1.334801914e-05)
(7.420988168e-05 -1.665334537e-16 1.334806039e-05)
(7.447005523e-05 -1.595945598e-16 1.334810516e-05)
(7.474062784e-05 -1.526556659e-16 1.334815171e-05)
(7.501120044e-05 -1.45716772e-16 1.334819827e-05)
(7.527137399e-05 -1.396452398e-16 1.334824303e-05)
(7.551115338e-05 -1.335737077e-16 1.334828429e-05)
(7.572132225e-05 -1.279358564e-16 1.334832045e-05)
(7.589380183e-05 -1.235990477e-16 1.334835012e-05)
(7.602196618e-05 -1.205632816e-16 1.334837218e-05)
(7.610088829e-05 -1.185032975e-16 1.334838575e-05)
(8.483804382e-05 4.270930996e-16 3.096618393e-05)
(8.480353541e-05 4.263082942e-16 3.096617621e-05)
(8.470133915e-05 4.243567303e-16 3.096615336e-05)
(8.453537912e-05 4.211041238e-16 3.096611626e-05)
(8.431203527e-05 4.167673151e-16 3.096606632e-05)
(8.403988756e-05 4.111294638e-16 3.096600548e-05)
(8.372939718e-05 4.050579316e-16 3.096593606e-05)
(8.33924984e-05 3.989863995e-16 3.096586074e-05)
(8.304213388e-05 3.920475056e-16 3.096578241e-05)
(8.269176936e-05 3.851086117e-16 3.096570408e-05)
(8.235487057e-05 3.781697178e-16 3.096562875e-05)
(8.204438019e-05 3.720981856e-16 3.096555934e-05)
(8.177223249e-05 3.664603343e-16 3.096549849e-05)
(8.154888864e-05 3.621235256e-16 3.096544856e-05)
(8.138292861e-05 3.593046e-16 3.096541145e-05)
(8.128073235e-05 3.571361956e-16 3.09653886e-05)
(8.124622394e-05 3.564804742e-16 3.096538089e-05)
(8.128073235e-05 3.571361956e-16 3.09653886e-05)
(8.138292861e-05 3.593046e-16 3.096541145e-05)
(8.154888864e-05 3.621235256e-16 3.096544856e-05)
(8.177223249e-05 3.664603343e-16 3.096549849e-05)
(8.204438019e-05 3.720981856e-16 3.096555934e-05)
(8.235487057e-05 3.781697178e-16 3.096562875e-05)
(8.269176936e-05 3.851086117e-16 3.096570408e-05)
(8.304213388e-05 3.920475056e-16 3.096578241e-05)
(8.33924984e-05 3.989863995e-16 3.096586074e-05)
(8.372939718e-05 4.050579316e-16 3.096593606e-05)
(8.403988756e-05 4.111294638e-16 3.096600548e-05)
(8.431203527e-05 4.167673151e-16 3.096606632e-05)
(8.453537912e-05 4.211041238e-16 3.096611626e-05)
(8.470133915e-05 4.243567303e-16 3.096615336e-05)
(8.480353541e-05 4.263082942e-16 3.096617621e-05)
(9.356902008e-05 1.18737467e-15 5.323701631e-05)
(9.352621935e-05 1.186659278e-15 5.323700442e-05)
(9.339946546e-05 1.184599294e-15 5.323696921e-05)
(9.319362544e-05 1.181346687e-15 5.323691203e-05)
(9.291661234e-05 1.177009878e-15 5.323683509e-05)
(9.257906789e-05 1.171372027e-15 5.323674133e-05)
(9.219396706e-05 1.165300495e-15 5.323663436e-05)
(9.177611192e-05 1.158795282e-15 5.323651829e-05)
(9.134155525e-05 1.151856388e-15 5.323639759e-05)
(9.090699858e-05 1.144917494e-15 5.323627688e-05)
(9.048914344e-05 1.138412281e-15 5.323616082e-05)
(9.010404262e-05 1.132340749e-15 5.323605385e-05)
(8.976649817e-05 1.126702898e-15 5.323596009e-05)
(8.948948507e-05 1.122366089e-15 5.323588314e-05)
(8.928364505e-05 1.119547163e-15 5.323582597e-05)
(8.915689116e-05 1.117487179e-15 5.323579076e-05)
(8.911409042e-05 1.11674651e-15 5.323577887e-05)
(8.915689116e-05 1.117487179e-15 5.323579076e-05)
(8.928364505e-05 1.119547163e-15 5.323582597e-05)
(8.948948507e-05 1.122366089e-15 5.323588314e-05)
(8.976649817e-05 1.126702898e-15 5.323596009e-05)
(9.010404262e-05 1.132340749e-15 5.323605385e-05)
(9.048914344e-05 1.138412281e-15 5.323616082e-05)
(9.090699858e-05 1.144917494e-15 5.323627688e-05)
(9.134155525e-05 1.151856388e-15 5.323639759e-05)
(9.177611192e-05 1.158795282e-15 5.323651829e-05)
(9.219396706e-05 1.165300495e-15 5.323663436e-05)
(9.257906789e-05 1.171372027e-15 5.323674133e-05)
(9.291661234e-05 1.177009878e-15 5.323683509e-05)
(9.319362544e-05 1.181346687e-15 5.323691203e-05)
(9.339946546e-05 1.184599294e-15 5.323696921e-05)
(9.352621935e-05 1.186659278e-15 5.323700442e-05)
(0.0001023117738 2.181248761e-15 8.036588445e-05)
(0.0001022604027 2.18065583e-15 8.036586731e-05)
(0.0001021082676 2.178595845e-15 8.036581654e-05)
(0.0001018612102 2.17577692e-15 8.03657341e-05)
(0.000101528728 2.171440111e-15 8.036562316e-05)
(0.0001011235937 2.16580226e-15 8.036548797e-05)
(0.0001006613803 2.159730728e-15 8.036533373e-05)
(0.0001001598539 2.152791834e-15 8.036516638e-05)
(9.963828164e-05 2.14585294e-15 8.036499233e-05)
(9.911670938e-05 2.138914046e-15 8.036481829e-05)
(9.861518297e-05 2.132842514e-15 8.036465094e-05)
(9.815296958e-05 2.126770982e-15 8.03644967e-05)
(9.774783526e-05 2.12113313e-15 8.036436151e-05)
(9.741535309e-05 2.116796322e-15 8.036425057e-05)
(9.716829567e-05 2.113110034e-15 8.036416813e-05)
(9.70161606e-05 2.11126689e-15 8.036411736e-05)
(9.696478945e-05 2.110599792e-15 8.036410022e-05)
(9.70161606e-05 2.11126689e-15 8.036411736e-05)
(9.716829567e-05 2.113110034e-15 8.036416813e-05)
(9.741535309e-05 2.116796322e-15 8.036425057e-05)
(9.774783526e-05 2.12113313e-15 8.036436151e-05)
(9.815296958e-05 2.126770982e-15 8.03644967e-05)
(9.861518297e-05 2.132842514e-15 8.036465094e-05)
(9.911670938e-05 2.138914046e-15 8.036481829e-05)
(9.963828164e-05 2.14585294e-15 8.036499233e-05)
(0.0001001598539 2.152791834e-15 8.036516638e-05)
(0.0001006613803 2.159730728e-15 8.036533373e-05)
(0.0001011235937 2.16580226e-15 8.036548797e-05)
(0.000101528728 2.171440111e-15 8.036562316e-05)
(0.0001018612102 2.17577692e-15 8.03657341e-05)
(0.0001021082676 2.178595845e-15 8.036581654e-05)
(0.0001022604027 2.18065583e-15 8.036586731e-05)
(0.000111056065 3.423002128e-15 0.000112459715)
(0.0001109960304 3.422392578e-15 0.0001124596916)
(0.0001108182388 3.420441014e-15 0.0001124596222)
(0.0001105295169 3.417405248e-15 0.0001124595096)
(0.000110140964 3.413068439e-15 0.000112459358)
(0.0001096675066 3.407430588e-15 0.0001124591733)
(0.0001091273442 3.401359056e-15 0.0001124589625)
(0.0001085412389 3.394853842e-15 0.0001124587338)
(0.0001079317072 3.387914949e-15 0.000112458496)
(0.0001073221754 3.380976055e-15 0.0001124582582)
(0.0001067360701 3.374470842e-15 0.0001124580295)
(0.0001061959077 3.368399309e-15 0.0001124578188)
(0.0001057224504 3.362761458e-15 0.000112457634)
(0.0001053338974 3.358424649e-15 0.0001124574824)
(0.0001050451755 3.354955203e-15 0.0001124573698)
(0.000104867384 3.353003639e-15 0.0001124573004)
(0.0001048073494 3.352327011e-15 0.000112457277)
(0.000104867384 3.353003639e-15 0.0001124573004)
(0.0001050451755 3.354955203e-15 0.0001124573698)
(0.0001053338974 3.358424649e-15 0.0001124574824)
(0.0001057224504 3.362761458e-15 0.000112457634)
(0.0001061959077 3.368399309e-15 0.0001124578188)
(0.0001067360701 3.374470842e-15 0.0001124580295)
(0.0001073221754 3.380976055e-15 0.0001124582582)
(0.0001079317072 3.387914949e-15 0.000112458496)
(0.0001085412389 3.394853842e-15 0.0001124587338)
(0.0001091273442 3.401359056e-15 0.0001124589625)
(0.0001096675066 3.407430588e-15 0.0001124591733)
(0.000110140964 3.413068439e-15 0.000112459358)
(0.0001105295169 3.417405248e-15 0.0001124595096)
(0.0001108182388 3.420441014e-15 0.0001124596222)
(0.0001109960304 3.422392578e-15 0.0001124596916)
(0.0001197900105 4.921401204e-15 0.0001495093367)
(0.0001197214375 4.92075998e-15 0.0001495093062)
(0.0001195183594 4.918808416e-15 0.0001495092156)
(0.0001191885737 4.91577265e-15 0.0001495090686)
(0.0001187447584 4.911435841e-15 0.0001495088708)
(0.0001182039631 4.90579799e-15 0.0001495086297)
(0.0001175869756 4.899726458e-15 0.0001495083546)
(0.0001169175109 4.892787564e-15 0.0001495080562)
(0.0001162212879 4.88584867e-15 0.0001495077458)
(0.000115525065 4.878909776e-15 0.0001495074355)
(0.0001148556003 4.872838244e-15 0.000149507137)
(0.0001142386127 4.866766712e-15 0.000149506862)
(0.0001136978174 4.861128861e-15 0.0001495066209)
(0.0001132540022 4.856792052e-15 0.000149506423)
(0.0001129242165 4.853322605e-15 0.000149506276)
(0.0001127211384 4.851371041e-15 0.0001495061855)
(0.0001126525654 4.850695072e-15 0.0001495061549)
(0.0001127211384 4.851371041e-15 0.0001495061855)
(0.0001129242165 4.853322605e-15 0.000149506276)
(0.0001132540022 4.856792052e-15 0.000149506423)
(0.0001136978174 4.861128861e-15 0.0001495066209)
(0.0001142386127 4.866766712e-15 0.000149506862)
(0.0001148556003 4.872838244e-15 0.000149507137)
(0.000115525065 4.878909776e-15 0.0001495074355)
(0.0001162212879 4.88584867e-15 0.0001495077458)
(0.0001169175109 4.892787564e-15 0.0001495080562)
(0.0001175869756 4.899726458e-15 0.0001495083546)
(0.0001182039631 4.90579799e-15 0.0001495086297)
(0.0001187447584 4.911435841e-15 0.0001495088708)
(0.0001191885737 4.91577265e-15 0.0001495090686)
(0.0001195183594 4.918808416e-15 0.0001495092156)
(0.0001197214375 4.92075998e-15 0.0001495093062)
(0.0001285000093 6.677891239e-15 0.0001913698004)
(0.0001284232761 6.677167499e-15 0.0001913697621)
(0.0001281960319 6.675215936e-15 0.0001913696487)
(0.000127827002 6.671746489e-15 0.0001913694646)
(0.0001273303732 6.66740968e-15 0.0001913692168)
(0.0001267252237 6.661771829e-15 0.0001913689149)
(0.0001260348152 6.655700296e-15 0.0001913685704)
(0.0001252856849 6.649195083e-15 0.0001913681966)
(0.000124506612 6.64225619e-15 0.0001913678079)
(0.0001237275391 6.635317296e-15 0.0001913674192)
(0.0001229784087 6.628812083e-15 0.0001913670454)
(0.0001222880003 6.62274055e-15 0.000191366701)
(0.0001216828508 6.617102699e-15 0.000191366399)
(0.000121186222 6.61276589e-15 0.0001913661512)
(0.0001208171921 6.609730124e-15 0.0001913659671)
(0.0001205899479 6.60777856e-15 0.0001913658537)
(0.0001205132147 6.607150475e-15 0.0001913658154)
(0.0001205899479 6.60777856e-15 0.0001913658537)
(0.0001208171921 6.609730124e-15 0.0001913659671)
(0.000121186222 6.61276589e-15 0.0001913661512)
(0.0001216828508 6.617102699e-15 0.000191366399)
(0.0001222880003 6.62274055e-15 0.000191366701)
(0.0001229784087 6.628812083e-15 0.0001913670454)
(0.0001237275391 6.635317296e-15 0.0001913674192)
(0.000124506612 6.64225619e-15 0.0001913678079)
(0.0001252856849 6.649195083e-15 0.0001913681966)
(0.0001260348152 6.655700296e-15 0.0001913685704)
(0.0001267252237 6.661771829e-15 0.0001913689149)
(0.0001273303732 6.66740968e-15 0.0001913692168)
(0.000127827002 6.671746489e-15 0.0001913694646)
(0.0001281960319 6.675215936e-15 0.0001913696487)
(0.0001284232761 6.677167499e-15 0.0001913697621)
(0.0001371706707 8.684609886e-15 0.000237739058)
(0.0001370864477 8.683917301e-15 0.0002377390119)
(0.0001368370222 8.682074157e-15 0.0002377388752)
(0.0001364319714 8.678387869e-15 0.0002377386534)
(0.0001358868668 8.674051061e-15 0.0002377383548)
(0.000135222649 8.668413209e-15 0.000237737991)
(0.00013446485 8.662341677e-15 0.000237737576)
(0.0001336425973 8.656270145e-15 0.0002377371256)
(0.0001327874794 8.649331251e-15 0.0002377366572)
(0.0001319323615 8.642392357e-15 0.0002377361889)
(0.0001311101088 8.635453463e-15 0.0002377357385)
(0.0001303523098 8.629381931e-15 0.0002377353235)
(0.000129688092 8.62374408e-15 0.0002377349597)
(0.0001291429874 8.619407271e-15 0.0002377346611)
(0.0001287379367 8.616588346e-15 0.0002377344392)
(0.0001284885112 8.614528361e-15 0.0002377343026)
(0.0001284042881 8.613832687e-15 0.0002377342565)
(0.0001284885112 8.614528361e-15 0.0002377343026)
(0.0001287379367 8.616588346e-15 0.0002377344392)
(0.0001291429874 8.619407271e-15 0.0002377346611)
(0.000129688092 8.62374408e-15 0.0002377349597)
(0.0001303523098 8.629381931e-15 0.0002377353235)
(0.0001311101088 8.635453463e-15 0.0002377357385)
(0.0001319323615 8.642392357e-15 0.0002377361889)
(0.0001327874794 8.649331251e-15 0.0002377366572)
(0.0001336425973 8.656270145e-15 0.0002377371256)
(0.00013446485 8.662341677e-15 0.000237737576)
(0.000135222649 8.668413209e-15 0.000237737991)
(0.0001358868668 8.674051061e-15 0.0002377383548)
(0.0001364319714 8.678387869e-15 0.0002377386534)
(0.0001368370222 8.682074157e-15 0.0002377388752)
(0.0001370864477 8.683917301e-15 0.0002377390119)
(0.0001457847533 1.092223351e-14 0.0002881349958)
(0.0001456940438 1.092149374e-14 0.0002881349423)
(0.0001454254086 1.091943376e-14 0.0002881347838)
(0.0001449891626 1.091618115e-14 0.0002881345265)
(0.0001444020763 1.091184434e-14 0.0002881341801)
(0.0001436867032 1.090620649e-14 0.0002881337581)
(0.0001428705418 1.090013496e-14 0.0002881332766)
(0.0001419849626 1.089406343e-14 0.0002881327541)
(0.0001410639871 1.088712454e-14 0.0002881322108)
(0.0001401430117 1.088018564e-14 0.0002881316675)
(0.0001392574325 1.087324675e-14 0.000288131145)
(0.0001384412711 1.086717522e-14 0.0002881306635)
(0.000137725898 1.086153736e-14 0.0002881302415)
(0.0001371388117 1.085720056e-14 0.0002881298951)
(0.0001367025657 1.085394795e-14 0.0002881296378)
(0.0001364339305 1.085210481e-14 0.0002881294793)
(0.0001363432209 1.085142101e-14 0.0002881294258)
(0.0001364339305 1.085210481e-14 0.0002881294793)
(0.0001367025657 1.085394795e-14 0.0002881296378)
(0.0001371388117 1.085720056e-14 0.0002881298951)
(0.000137725898 1.086153736e-14 0.0002881302415)
(0.0001384412711 1.086717522e-14 0.0002881306635)
(0.0001392574325 1.087324675e-14 0.000288131145)
(0.0001401430117 1.088018564e-14 0.0002881316675)
(0.0001410639871 1.088712454e-14 0.0002881322108)
(0.0001419849626 1.089406343e-14 0.0002881327541)
(0.0001428705418 1.090013496e-14 0.0002881332766)
(0.0001436867032 1.090620649e-14 0.0002881337581)
(0.0001444020763 1.091184434e-14 0.0002881341801)
(0.0001449891626 1.091618115e-14 0.0002881345265)
(0.0001454254086 1.091943376e-14 0.0002881347838)
(0.0001456940438 1.092149374e-14 0.0002881349423)