/*--------------------------------*- C++ -*----------------------------------*\
| =========                 |                                                 |
| \\      /  F ield         | OpenFOAM: The Open Source CFD Toolbox           |
|  \\    /   O peration     | Version:  2312                                  |
|   \\  /    A nd           | Website:  www.openfoam.com                      |
|    \\/     M anipulation  |                                                 |
\*---------------------------------------------------------------------------*/
FoamFile
{
    version     2.0;
    format      ascii;
    arch        "LSB;label=32;scalar=64";
    class       surfaceVectorField;
    location    "0.09/beam";
    object      Q;
}
// * * * * * * * * * * * * * * * * * * * * * * * * * * * * * * * * * * * * * //

dimensions      [1 1 -2 0 0 0 0];

oriented        oriented;

internalField   nonuniform List<vector> 
59
(
(0.02828601962 -3.919345991e-16 -7.335007539e-06)
(0.02828602755 -3.757190117e-16 -6.76989548e-06)
(0.02828604076 -3.48017552e-16 -5.8281492e-06)
(0.02828605924 -3.078607473e-16 -4.510485204e-06)
(0.02828608296 -2.539786585e-16 -2.818984357e-06)
(0.02828611191 -1.848878936e-16 -7.580934583e-07)
(0.02828614605 -9.900276863e-17 1.664189134e-06)
(0.02828618533 5.23001746e-18 4.43500881e-06)
(0.02828622972 1.291740994e-16 7.53529801e-06)
(0.02828627914 2.738252184e-16 1.093842996e-05)
(0.02828633356 4.396139996e-16 1.460893367e-05)
(0.02828639291 6.261926911e-16 1.85013027e-05)
(0.02828645717 8.322099005e-16 2.255890598e-05)
(0.02828652632 1.055078453e-15 2.671298127e-05)
(0.02828660039 1.290743149e-15 3.088166251e-05)
(0.02828667943 1.533456996e-15 3.496896698e-05)
(0.02828676357 1.775576653e-15 3.886364947e-05)
(0.02828685298 2.007390281e-15 4.243782651e-05)
(0.0282869479 2.216993577e-15 4.554528748e-05)
(0.02828704864 2.390232806e-15 4.801944819e-05)
(0.02828715555 2.510736122e-15 4.967096893e-05)
(0.028287269 2.560057114e-15 5.028515479e-05)
(0.02828738935 2.517966135e-15 4.9619527e-05)
(0.02828751692 2.362846275e-15 4.740091668e-05)
(0.02828765177 2.072467535e-15 4.332627091e-05)
(0.0282877938 1.624531562e-15 3.705875308e-05)
(0.02828794231 9.982785694e-16 2.823804026e-05)
(0.02828809606 1.749724711e-16 1.647483213e-05)
(0.02828825273 -8.59432123e-16 1.376939661e-06)
(0.02828840894 -2.114060631e-15 -1.745760613e-05)
(0.02828855967 -3.589374697e-15 -4.039372031e-05)
(0.02828869825 -5.277495459e-15 -6.776946634e-05)
(0.02828881599 -7.157625241e-15 -9.982666872e-05)
(0.02828890241 -9.197327618e-15 -0.0001367304438)
(0.02828894529 -1.134768997e-14 -0.0001784812107)
(0.02828893143 -1.354600469e-14 -0.0002249544372)
(0.02828884751 -1.571157548e-14 -0.0002758049002)
(0.02828868142 -1.77501265e-14 -0.0003305404456)
(0.02828842395 -1.955135568e-14 -0.000388434044)
(0.02828807025 -2.099503927e-14 -0.0004486425079)
(0.02828762173 -2.195138718e-14 -0.0005101400763)
(0.02828708651 -2.228819821e-14 -0.0005718814698)
(0.02828648042 -2.187473189e-14 -0.0006327597291)
(0.02828582518 -2.058854268e-14 -0.0006917938164)
(0.02828514754 -1.832305981e-14 -0.0007480956784)
(0.02828447524 -1.49921982e-14 -0.0008010436961)
(0.02828383477 -1.054139188e-14 -0.0008502291719)
(0.02828324692 -4.948118016e-15 -0.0008955720378)
(0.02828272543 1.764004447e-15 -0.0009372192047)
(0.02828227493 9.529898041e-15 -0.0009755801856)
(0.0282818925 1.822621576e-14 -0.001011177043)
(0.02828156906 2.768139825e-14 -0.001044622223)
(0.0282812933 3.765716223e-14 -0.00107646073)
(0.02828105449 4.786423506e-14 -0.001107153223)
(0.02828084569 5.794600748e-14 -0.00113697115)
(0.02828066466 6.750310686e-14 -0.001166043939)
(0.02828051391 7.608936086e-14 -0.001194334084)
(0.02828039878 8.325469793e-14 -0.001221744768)
(0.0282803254 8.857287663e-14 -0.001248131946)
)
;

boundaryField
{
    left
    {
        type            calculated;
        value           uniform (-0.02828601699 -6.811392678e-12 7.523365976e-06);
    }
    right
    {
        type            calculated;
        value           uniform (0.02828029836 -6.719299597e-12 -0.001273406977);
    }
    beam
    {
        type            empty;
        value           nonuniform List<vector> 0();
    }
}


// ************************************************************************* //
