/*--------------------------------*- C++ -*----------------------------------*\
| =========                 |                                                 |
| \\      /  F ield         | OpenFOAM: The Open Source CFD Toolbox           |
|  \\    /   O peration     | Version:  2312                                  |
|   \\  /    A nd           | Website:  www.openfoam.com                      |
|    \\/     M anipulation  |                                                 |
\*---------------------------------------------------------------------------*/
FoamFile
{
    version     2.0;
    format      ascii;
    arch        "LSB;label=32;scalar=64";
    class       volVectorField;
    location    "0.09/beam";
    object      Theta;
}
// * * * * * * * * * * * * * * * * * * * * * * * * * * * * * * * * * * * * * //

dimensions      [0 0 0 0 0 0 0];

internalField   nonuniform List<vector> 
60
(
(3.165378862e-15 8.755327059e-05 -7.850272402e-15)
(3.165346864e-15 7.739583328e-05 -7.402979987e-15)
(3.165280077e-15 5.350123399e-05 -6.504934558e-15)
(3.165192058e-15 1.823203218e-05 -5.148412707e-15)
(3.165096941e-15 -2.944737948e-05 -3.324305711e-15)
(3.165012973e-15 -8.835124826e-05 -1.024246465e-15)
(3.164959798e-15 -0.0001583956322 1.757433204e-15)
(3.164956968e-15 -0.0002385622923 5.017108501e-15)
(3.165022476e-15 -0.0003280636565 8.741933578e-15)
(3.165171443e-15 -0.0004255881204 1.29013478e-14)
(3.165416418e-15 -0.0005296916784 1.744219682e-14)
(3.165764062e-15 -0.000638502594 2.228766167e-14)
(3.166216326e-15 -0.0007498372028 2.732823962e-14)
(3.166769167e-15 -0.0008610702399 3.241829901e-14)
(3.167411983e-15 -0.0009691526813 3.737180235e-14)
(3.168126688e-15 -0.001070541683 4.195944962e-14)
(3.168887339e-15 -0.001161183191 4.590644711e-14)
(3.169661775e-15 -0.001236463056 4.889118612e-14)
(3.170408061e-15 -0.001291177813 5.055241067e-14)
(3.171085289e-15 -0.001319496588 5.048630838e-14)
(3.171655566e-15 -0.001314935253 4.825884636e-14)
(3.172095168e-15 -0.001270336676 4.341705561e-14)
(3.172411546e-15 -0.001177876872 3.550228833e-14)
(3.172663352e-15 -0.001029064805 2.407044155e-14)
(3.172985383e-15 -0.0008148320297 8.714608896e-15)
(3.173619604e-15 -0.0005256207564 -1.090270804e-14)
(3.174943192e-15 -0.0001515510062 -3.502816585e-14)
(3.177497625e-15 0.0003173479915 -6.376327747e-14)
(3.182004198e-15 0.0008908312269 -9.705937172e-14)
(3.189368072e-15 0.001578054053 -1.346233891e-13)
(3.200771024e-15 0.002387115256 -1.759146421e-13)
(3.21718229e-15 0.003324541252 -2.201955202e-13)
(3.239876279e-15 0.004394733799 -2.663274845e-13)
(3.269889913e-15 0.005599417077 -3.128348689e-13)
(3.30792155e-15 0.006937126085 -3.579277033e-13)
(3.354087057e-15 0.00840279082 -3.994477775e-13)
(3.407644712e-15 0.009987468546 -4.349184683e-13)
(3.466686021e-15 0.01167828123 -4.6155908e-13)
(3.52783931e-15 0.01345859895 -4.763492199e-13)
(3.585914007e-15 0.01530850113 -4.760917758e-13)
(3.633557279e-15 0.01720551518 -4.575041435e-13)
(3.660654533e-15 0.01912560984 -4.173155415e-13)
(3.653542959e-15 0.02104437857 -3.523796287e-13)
(3.593457851e-15 0.02293832418 -2.597888858e-13)
(3.45444912e-15 0.02478611828 -1.36992744e-13)
(3.199939809e-15 0.02656970877 1.808681594e-14)
(2.779048095e-15 0.02827512449 2.069415458e-13)
(2.122363673e-15 0.02989288873 4.303615595e-13)
(1.140445426e-15 0.03141791926 6.883088783e-13)
(-2.735430484e-16 0.03284897512 9.797643124e-13)
(-2.230862343e-15 0.03418755624 1.302521936e-12)
(-4.821667683e-15 0.03543659087 1.652899615e-12)
(-8.071450752e-15 0.03659866424 2.025323323e-12)
(-1.188405479e-14 0.03767460027 2.411741341e-12)
(-1.597869446e-14 0.03866142426 2.800819051e-12)
(-1.984446608e-14 0.03955159979 3.176883078e-12)
(-2.273815376e-14 0.04033042352 3.518574196e-12)
(-2.37427878e-14 0.04097653888 3.797241406e-12)
(-2.184685203e-14 0.04145672156 3.975112179e-12)
(-1.58654726e-14 0.04172887653 4.00337965e-12)
)
;

boundaryField
{
    left
    {
        type            momentBeamRotationNR;
        value           uniform (3.165378862e-15 8.755327059e-05 -7.850272402e-15);
        momentSeries    
{
        file            "$FOAM_CASE/constant/beam/timeVsMoment";
        outOfBounds     clamp;
}
        moment          uniform (0 0 0);
    }
    right
    {
        type            momentBeamRotationNR;
        value           uniform (-1.58654726e-14 0.04172887653 4.00337965e-12);
        momentSeries    
{
        file            "$FOAM_CASE/constant/beam/timeVsMoment";
        outOfBounds     clamp;
}
        moment          uniform (0 0 0);
    }
    beam
    {
        type            empty;
    }
}


// ************************************************************************* //
