/*--------------------------------*- C++ -*----------------------------------*\
| =========                 |                                                 |
| \\      /  F ield         | OpenFOAM: The Open Source CFD Toolbox           |
|  \\    /   O peration     | Version:  2312                                  |
|   \\  /    A nd           | Website:  www.openfoam.com                      |
|    \\/     M anipulation  |                                                 |
\*---------------------------------------------------------------------------*/
FoamFile
{
    version     2.0;
    format      ascii;
    arch        "LSB;label=32;scalar=64";
    class       volVectorField;
    location    "0.09/beam";
    object      W;
}
// * * * * * * * * * * * * * * * * * * * * * * * * * * * * * * * * * * * * * //

dimensions      [0 1 0 0 0 0 0];

internalField   nonuniform List<vector> 
60
(
(4.152300272e-06 7.960518637e-16 -2.887136469e-06)
(1.24569388e-05 3.980364358e-16 -8.385781252e-06)
(2.076167729e-05 2.97943575e-17 -1.305935407e-05)
(2.906654523e-05 -2.884024764e-16 -1.636402158e-05)
(3.737152216e-05 -5.356789204e-16 -1.7765845e-05)
(4.56765187e-05 -6.904523596e-16 -1.674586324e-05)
(5.398136248e-05 -7.3041751e-16 -1.280625103e-05)
(6.228578726e-05 -6.327021254e-16 -5.477764599e-06)
(7.058942863e-05 -3.74196901e-16 5.671365879e-06)
(7.889182704e-05 6.796962528e-17 2.102493754e-05)
(8.719244071e-05 7.156039485e-16 4.090662727e-05)
(9.549066979e-05 1.588517232e-15 6.556616791e-05)
(0.0001037858935 2.703331321e-15 9.516381676e-05)
(0.0001120775209 4.071997817e-15 0.0001297531753)
(0.000120365055 5.700098459e-15 0.0001692623164)
(0.000128648169 7.584943255e-15 0.0002134732995)
(0.0001369267898 9.713499318e-15 0.000262000015)
(0.0001452011845 1.20601552e-14 0.0003142644066)
(0.0001534720376 1.458454166e-14 0.0003694710562)
(0.0001617405082 1.722932253e-14 0.0004265802265)
(0.0001700082454 1.9918098e-14 0.0004842795079)
(0.0001782773382 2.255368712e-14 0.0005409544481)
(0.0001865497001 2.50166925e-14 0.0005946557479)
(0.00019482865 2.7165405e-14 0.0006430826659)
(0.0002031156394 2.883497307e-14 0.0006835345853)
(0.0002114114025 2.983947556e-14 0.0007129050247)
(0.0002197144885 2.997368524e-14 0.0007276520446)
(0.0002280199025 2.901762337e-14 0.0007238008087)
(0.0002363173739 2.674113961e-14 0.0006969312387)
(0.0002445892373 2.29122327e-14 0.000642214966)
(0.0002528079384 1.730600775e-14 0.0005544289396)
(0.0002609333422 9.714772911e-15 0.0004280412454)
(0.0002689098484 -4.103229434e-17 0.0002572605517)
(0.0002766638639 -1.209454637e-14 3.618001101e-05)
(0.0002841014904 -2.652040232e-14 -0.000241135575)
(0.0002911075224 -4.33167063e-14 -0.000580451143)
(0.0002975451351 -6.239123396e-14 -0.000987249076)
(0.0003032580001 -8.354422024e-14 -0.001466497838)
(0.0003080731987 -1.064568699e-13 -0.002022544781)
(0.0003118073245 -1.30678913e-13 -0.002658892907)
(0.0003142725758 -1.556229489e-13 -0.003378142253)
(0.0003152859181 -1.805612845e-13 -0.00418182541)
(0.0003146763107 -2.046296336e-13 -0.005070440154)
(0.0003122939959 -2.268374355e-13 -0.006043385114)
(0.0003080154066 -2.460835552e-13 -0.007099104335)
(0.0003017490256 -2.611828835e-13 -0.008235132726)
(0.0002934351757 -2.70894994e-13 -0.009448332639)
(0.0002830466764 -2.739675768e-13 -0.01073501283)
(0.0002705835715 -2.691767936e-13 -0.01209119341)
(0.0002560701439 -2.553853502e-13 -0.01351272354)
(0.0002395478615 -2.315909352e-13 -0.01499548836)
(0.0002210728232 -1.969936664e-13 -0.01653544359)
(0.0002007114516 -1.510464692e-13 -0.01812869395)
(0.0001785423581 -9.35230315e-14 -0.01977139516)
(0.0001546579375 -2.456074894e-14 -0.02145967975)
(0.0001291725196 5.528431279e-14 -0.02318942514)
(0.0001022307486 1.450153964e-13 -0.02495604014)
(7.402211896e-05 2.431707776e-13 -0.02675411278)
(4.479636172e-05 3.478377942e-13 -0.02857705001)
(1.488488334e-05 4.566745229e-13 -0.03041656272)
)
;

boundaryField
{
    left
    {
        type            fixedValue;
        value           uniform (0 0 0);
    }
    right
    {
        type            fixedValue;
        value           uniform (-1.968591459e-07 5.108229857e-13 -0.03133941181);
    }
    beam
    {
        type            empty;
    }
}


// ************************************************************************* //
