/*--------------------------------*- C++ -*----------------------------------*\
| =========                 |                                                 |
| \\      /  F ield         | OpenFOAM: The Open Source CFD Toolbox           |
|  \\    /   O peration     | Version:  2312                                  |
|   \\  /    A nd           | Website:  www.openfoam.com                      |
|    \\/     M anipulation  |                                                 |
\*---------------------------------------------------------------------------*/
FoamFile
{
    version     2.0;
    format      ascii;
    arch        "LSB;label=32;scalar=64";
    class       surfaceVectorField;
    location    "0.23/beam";
    object      Gamma;
}
// * * * * * * * * * * * * * * * * * * * * * * * * * * * * * * * * * * * * * //

dimensions      [0 0 0 0 0 0 0];

oriented        oriented;

internalField   nonuniform List<vector> 
59
(
(0.004149157579 -1.380261929e-17 -5.739252263e-09)
(0.004149156243 -1.370707175e-17 -5.73816892e-09)
(0.004149154025 -1.355344372e-17 -5.737399909e-09)
(0.004149150938 -1.334956559e-17 -5.738682138e-09)
(0.004149147 -1.310749974e-17 -5.744427867e-09)
(0.004149142234 -1.284337186e-17 -5.756917255e-09)
(0.004149136669 -1.257483353e-17 -5.778115311e-09)
(0.004149130336 -1.232487366e-17 -5.810709901e-09)
(0.004149123274 -1.211836651e-17 -5.855982849e-09)
(0.004149115524 -1.198251191e-17 -5.914102023e-09)
(0.004149107131 -1.194606356e-17 -5.9846623e-09)
(0.004149098146 -1.204291312e-17 -6.064617756e-09)
(0.004149088619 -1.230434508e-17 -6.150511943e-09)
(0.004149078609 -1.275899209e-17 -6.235167348e-09)
(0.004149068173 -1.343286338e-17 -6.310679297e-09)
(0.004149057373 -1.435775537e-17 -6.365859361e-09)
(0.004149046272 -1.553902298e-17 -6.388256838e-09)
(0.004149034937 -1.697366237e-17 -6.363249205e-09)
(0.004149023432 -1.866380783e-17 -6.275548708e-09)
(0.004149011826 -2.057721044e-17 -6.108483289e-09)
(0.004149000186 -2.266933415e-17 -5.845844081e-09)
(0.004148988579 -2.486873934e-17 -5.472965621e-09)
(0.004148977073 -2.708072782e-17 -4.977039497e-09)
(0.004148965729 -2.918461775e-17 -4.348018392e-09)
(0.004148954615 -3.103214005e-17 -3.581242252e-09)
(0.004148943787 -3.244711785e-17 -2.676344277e-09)
(0.004148933309 -3.323547956e-17 -1.640562706e-09)
(0.004148923228 -3.317253039e-17 -4.864836156e-10)
(0.004148913602 -3.20009171e-17 7.644837428e-10)
(0.004148904472 -2.95873821e-17 2.085693095e-09)
(0.004148895885 -2.563984396e-17 3.442552234e-09)
(0.004148887874 -1.986360377e-17 4.797194512e-09)
(0.004148880478 -1.219553667e-17 6.106838866e-09)
(0.004148873723 -2.497754163e-18 7.329476909e-09)
(0.004148867637 9.295905434e-18 8.423221021e-09)
(0.004148862239 2.316589406e-17 9.352200809e-09)
(0.004148857551 3.898016282e-17 1.008641244e-08)
(0.004148853586 5.65251212e-17 1.06072087e-08)
(0.004148850359 7.545480746e-17 1.09060759e-08)
(0.004148847879 9.533991816e-17 1.098816389e-08)
(0.004148846158 1.156271022e-16 1.087024058e-08)
(0.004148845202 1.357009209e-16 1.058131914e-08)
(0.004148845019 1.548640273e-16 1.015884476e-08)
(0.004148845615 1.724039994e-16 9.644845174e-09)
(0.004148846996 1.875781684e-16 9.084794639e-09)
(0.004148849168 1.997057577e-16 8.519212116e-09)
(0.004148852135 2.08141832e-16 7.985175624e-09)
(0.004148855903 2.123397702e-16 7.507708962e-09)
(0.004148860477 2.118498553e-16 7.104293835e-09)
(0.004148865863 2.063477745e-16 6.78024131e-09)
(0.004148872063 1.956084953e-16 6.532459369e-09)
(0.004148879084 1.79505789e-16 6.351984146e-09)
(0.004148886928 1.580655443e-16 6.225761941e-09)
(0.004148895601 1.314004547e-16 6.138887126e-09)
(0.004148905104 9.961500816e-17 6.070726993e-09)
(0.004148915443 6.177192937e-17 5.960301869e-09)
(0.004148926617 9.927383138e-18 5.491578548e-09)
(0.004148938634 -1.058856415e-16 2.814307684e-09)
(0.004148951488 -5.685665589e-16 -1.308429299e-08)
)
;

boundaryField
{
    left
    {
        type            calculated;
        value           uniform (-0.004149158025 -4.515838507e-14 5.739729085e-09);
    }
    right
    {
        type            calculated;
        value           uniform (0.004148965188 -4.843404476e-14 -1.079654038e-07);
    }
    beam
    {
        type            empty;
        value           nonuniform List<vector> 0();
    }
}


// ************************************************************************* //
