/*--------------------------------*- C++ -*----------------------------------*\
| =========                 |                                                 |
| \\      /  F ield         | OpenFOAM: The Open Source CFD Toolbox           |
|  \\    /   O peration     | Version:  2312                                  |
|   \\  /    A nd           | Website:  www.openfoam.com                      |
|    \\/     M anipulation  |                                                 |
\*---------------------------------------------------------------------------*/
FoamFile
{
    version     2.0;
    format      ascii;
    arch        "LSB;label=32;scalar=64";
    class       surfaceVectorField;
    location    "0.23/beam";
    object      K;
}
// * * * * * * * * * * * * * * * * * * * * * * * * * * * * * * * * * * * * * //

dimensions      [0 -1 0 0 0 0 0];

oriented        oriented;

internalField   nonuniform List<vector> 
59
(
(1.611960028e-17 -6.379644478e-05 1.535866455e-13)
(3.212096255e-17 -0.0001275839218 3.064696927e-13)
(4.788692549e-17 -0.0001913610595 4.579680598e-13)
(6.330240408e-17 -0.0002551409901 6.074796893e-13)
(7.825551152e-17 -0.0003189599016 7.545147415e-13)
(9.263829417e-17 -0.0003828800606 8.987354181e-13)
(1.063478396e-16 -0.0004469873448 1.039997545e-12)
(1.192874887e-16 -0.0005113934933 1.178373984e-12)
(1.313668511e-16 -0.0005762323007 1.314210539e-12)
(1.425038959e-16 -0.0006416456386 1.448147033e-12)
(1.526250145e-16 -0.0007077740653 1.58112647e-12)
(1.616655143e-16 -0.0007747389697 1.714442508e-12)
(1.695717735e-16 -0.0008426256049 1.849747233e-12)
(1.763013032e-16 -0.0009114601309 1.989032273e-12)
(1.818248614e-16 -0.0009811848961 2.13458969e-12)
(1.861241961e-16 -0.001051636138 2.289031776e-12)
(1.892009089e-16 -0.001122518723 2.455175713e-12)
(1.910717005e-16 -0.001193387053 2.635856538e-12)
(1.917671522e-16 -0.001263629298 2.833906271e-12)
(1.913389386e-16 -0.001332455993 3.051981597e-12)
(1.898567023e-16 -0.001398894939 3.292316954e-12)
(1.874111015e-16 -0.00146180062 3.556495109e-12)
(1.841118518e-16 -0.001519878201 3.845190223e-12)
(1.800849229e-16 -0.001571705919 4.157883817e-12)
(1.754768393e-16 -0.001615776654 4.492538363e-12)
(1.704433103e-16 -0.001650557227 4.845326671e-12)
(1.65154772e-16 -0.001674552469 5.21036784e-12)
(1.597856731e-16 -0.00168637749 5.579440961e-12)
(1.545176501e-16 -0.001684836254 5.941658045e-12)
(1.494839319e-16 -0.001668999813 6.283963952e-12)
(1.448732358e-16 -0.001638279597 6.590921009e-12)
(1.408528092e-16 -0.001592489665 6.843840924e-12)
(1.374973617e-16 -0.001531892443 7.022050662e-12)
(1.348778736e-16 -0.001457221424 7.103753004e-12)
(1.330340214e-16 -0.00136967665 7.066018509e-12)
(1.319557383e-16 -0.001270890046 6.885662604e-12)
(1.315875952e-16 -0.001162860035 6.540338779e-12)
(1.318292506e-16 -0.001047855071 6.009620596e-12)
(1.32539619e-16 -0.000928295006 5.276195166e-12)
(1.335451288e-16 -0.0008066179506 4.327052319e-12)
(1.346471618e-16 -0.0006851406442 3.154649289e-12)
(1.356364021e-16 -0.0005659249073 1.757930107e-12)
(1.363037133e-16 -0.0004506636273 1.431391858e-13)
(1.364541242e-16 -0.0003406075033 -1.675640319e-12)
(1.359156223e-16 -0.0002365212835 -3.676234275e-12)
(1.345474907e-16 -0.000138691326 -5.828569396e-12)
(1.322452937e-16 -4.697307121e-05 -8.09519496e-12)
(1.289343857e-16 3.912355748e-05 -1.043204487e-11)
(1.245768585e-16 0.0001203245518 -1.278950749e-11)
(1.19154342e-16 0.0001974828507 -1.511367829e-11)
(1.126738086e-16 0.0002714633963 -1.734759069e-11)
(1.05157027e-16 0.000343064343 -1.943233776e-11)
(9.664312612e-17 0.0004129611451 -2.130844344e-11)
(8.717565018e-17 0.0004816741325 -2.291720597e-11)
(7.681442854e-17 0.0005495260758 -2.420114012e-11)
(6.559862484e-17 0.0006163878277 -2.509817545e-11)
(5.346200025e-17 0.0006800431029 -2.54971171e-11)
(3.972218988e-17 0.0007262866457 -2.49663419e-11)
(2.012837799e-17 0.0006697242087 -2.12321778e-11)
)
;

boundaryField
{
    left
    {
        type            calculated;
        value           uniform (-2.642669201e-33 3.961220855e-36 4.245387239e-35);
    }
    right
    {
        type            calculated;
        value           uniform (7.272538508e-33 3.212986702e-30 8.157823002e-35);
    }
    beam
    {
        type            empty;
        value           nonuniform List<vector> 0();
    }
}


// ************************************************************************* //
