/*--------------------------------*- C++ -*----------------------------------*\
| =========                 |                                                 |
| \\      /  F ield         | OpenFOAM: The Open Source CFD Toolbox           |
|  \\    /   O peration     | Version:  2312                                  |
|   \\  /    A nd           | Website:  www.openfoam.com                      |
|    \\/     M anipulation  |                                                 |
\*---------------------------------------------------------------------------*/
FoamFile
{
    version     2.0;
    format      ascii;
    arch        "LSB;label=32;scalar=64";
    class       surfaceVectorField;
    location    "0.23/beam";
    object      M;
}
// * * * * * * * * * * * * * * * * * * * * * * * * * * * * * * * * * * * * * //

dimensions      [1 2 -2 0 0 0 0];

oriented        oriented;

internalField   nonuniform List<vector> 
59
(
(9.954579024e-18 -3.848112234e-08 9.220154301e-17)
(1.986968457e-17 -7.695683544e-08 1.839805129e-16)
(2.970726838e-17 -1.15426312e-07 2.749278544e-16)
(3.943400791e-17 -1.538974732e-07 3.646819645e-16)
(4.902334496e-17 -1.923921472e-07 4.529486224e-16)
(5.845777056e-17 -2.309478923e-07 5.395249063e-16)
(6.773108495e-17 -2.696165086e-07 6.243241695e-16)
(7.684974693e-17 -3.084653956e-07 7.073901007e-16)
(8.583589197e-17 -3.475752565e-07 7.889303061e-16)
(9.472818509e-17 -3.870316661e-07 8.69328979e-16)
(1.035821045e-16 -4.269194073e-07 9.491524108e-16)
(1.124721583e-16 -4.673117002e-07 1.02917752e-15)
(1.21491904e-16 -5.082599681e-07 1.110396534e-15)
(1.307523458e-16 -5.497799905e-07 1.194005672e-15)
(1.403791597e-16 -5.918369927e-07 1.281381672e-15)
(1.505132274e-16 -6.343321954e-07 1.374093706e-15)
(1.613036036e-16 -6.770875782e-07 1.473834131e-15)
(1.728966477e-16 -7.198343632e-07 1.582306166e-15)
(1.854344389e-16 -7.622035017e-07 1.701211373e-15)
(1.990449075e-16 -8.037188005e-07 1.832146177e-15)
(2.138280002e-16 -8.437938427e-07 1.976453565e-15)
(2.298431781e-16 -8.817376689e-07 2.135085278e-15)
(2.470957709e-16 -9.167692528e-07 2.308447466e-15)
(2.655218556e-16 -9.480310067e-07 2.496230061e-15)
(2.849713216e-16 -9.746138571e-07 2.697210671e-15)
(3.051944952e-16 -9.955930116e-07 2.909091971e-15)
(3.25829356e-16 -1.010066605e-06 3.12834302e-15)
(3.463878075e-16 -1.017199293e-06 3.350027205e-15)
(3.662400012e-16 -1.016269641e-06 3.567605661e-15)
(3.846441332e-16 -1.006717321e-06 3.773237466e-15)
(4.007369275e-16 -9.881873171e-07 3.957650146e-15)
(4.134881155e-16 -9.605674708e-07 4.109618117e-15)
(4.217715895e-16 -9.240160754e-07 4.216722987e-15)
(4.244135987e-16 -8.789755617e-07 4.265870419e-15)
(4.20192558e-16 -8.261697799e-07 4.243285277e-15)
(4.078864075e-16 -7.665830835e-07 4.135038501e-15)
(3.863307523e-16 -7.014208928e-07 3.927703864e-15)
(3.544752895e-16 -6.320515086e-07 3.609008052e-15)
(3.114454464e-16 -5.599345515e-07 3.168547771e-15)
(2.566031286e-16 -4.865406552e-07 2.598504294e-15)
(1.896057405e-16 -4.132672446e-07 1.894343336e-15)
(1.104573297e-16 -3.413579811e-07 1.055427645e-15)
(1.954902365e-17 -2.718339907e-07 8.550594743e-17)
(-8.231431664e-17 -2.054496775e-07 -1.0069635e-15)
(-1.939019973e-16 -1.426663269e-07 -2.208661298e-15)
(-3.135678886e-16 -8.365666616e-08 -3.501522134e-15)
(-4.392773748e-16 -2.833349893e-08 -4.863048255e-15)
(-5.686460857e-16 2.359878214e-08 -6.266767399e-15)
(-6.989945171e-16 7.257808512e-08 -7.682875658e-15)
(-8.274125317e-16 1.191188908e-07 -9.07899017e-15)
(-9.508225362e-16 1.637429202e-07 -1.042088869e-14)
(-1.066037783e-15 2.069316088e-07 -1.167318363e-14)
(-1.169834982e-15 2.490923812e-07 -1.280014583e-14)
(-1.259026222e-15 2.905390933e-07 -1.376651167e-14)
(-1.330481807e-15 3.314664356e-07 -1.453774887e-14)
(-1.380808616e-15 3.717965082e-07 -1.507657129e-14)
(-1.403888779e-15 4.101924791e-07 -1.531618448e-14)
(-1.375889419e-15 4.380859367e-07 -1.499731284e-14)
(-1.171121676e-15 4.039682666e-07 -1.275414463e-14)
)
;

boundaryField
{
    left
    {
        type            calculated;
        value           uniform (-3.172090959e-36 2.389352847e-39 3.194896365e-37);
    }
    right
    {
        type            calculated;
        value           uniform (8.741851512e-36 1.938028582e-33 -7.446569524e-37);
    }
    beam
    {
        type            empty;
        value           nonuniform List<vector> 0();
    }
}


// ************************************************************************* //
