/*--------------------------------*- C++ -*----------------------------------*\
| =========                 |                                                 |
| \\      /  F ield         | OpenFOAM: The Open Source CFD Toolbox           |
|  \\    /   O peration     | Version:  2312                                  |
|   \\  /    A nd           | Website:  www.openfoam.com                      |
|    \\/     M anipulation  |                                                 |
\*---------------------------------------------------------------------------*/
FoamFile
{
    version     2.0;
    format      ascii;
    arch        "LSB;label=32;scalar=64";
    class       pointVectorField;
    location    "0.23/beam";
    object      pointW;
}
// * * * * * * * * * * * * * * * * * * * * * * * * * * * * * * * * * * * * * //

dimensions      [0 1 0 0 0 0 0];

internalField   nonuniform List<vector> 
1952
(
(-0.0003688679711 -8.870130307e-15 1.704425718e-05)
(-0.000361780173 -8.699638232e-15 1.671675178e-05)
(-0.000340789741 -8.194833701e-15 1.574684832e-05)
(-0.0003067026518 -7.375176858e-15 1.417178852e-05)
(-0.0002608293087 -6.272326408e-15 1.205212208e-05)
(-0.0002049319786 -4.927915714e-15 9.469277958e-06)
(-0.0001411593172 -3.394420162e-15 6.522538944e-06)
(-7.196254455e-05 -1.730386667e-15 3.32516839e-06)
(1.44705965e-13 0 -4.493366426e-15)
(7.196254483e-05 1.730386667e-15 -3.325168399e-06)
(0.0001411593175 3.394420162e-15 -6.522538953e-06)
(0.0002049319788 4.927915714e-15 -9.469277965e-06)
(0.0002608293089 6.272326408e-15 -1.205212209e-05)
(0.000306702652 7.375176858e-15 -1.417178852e-05)
(0.0003407897412 8.194833701e-15 -1.574684833e-05)
(0.000361780173 8.699638232e-15 -1.671675178e-05)
(0.0003688679711 8.870130307e-15 -1.704425718e-05)
(0.000361780173 8.699638232e-15 -1.671675178e-05)
(0.000340789741 8.194833701e-15 -1.574684832e-05)
(0.0003067026518 7.375176858e-15 -1.417178852e-05)
(0.0002608293087 6.272326408e-15 -1.205212208e-05)
(0.0002049319786 4.927915714e-15 -9.469277958e-06)
(0.0001411593172 3.394420162e-15 -6.522538944e-06)
(7.196254455e-05 1.730386667e-15 -3.32516839e-06)
(-1.447059301e-13 0 4.49336481e-15)
(-7.196254483e-05 -1.730386667e-15 3.325168399e-06)
(-0.0001411593175 -3.394420162e-15 6.522538953e-06)
(-0.0002049319788 -4.927915714e-15 9.469277965e-06)
(-0.0002608293089 -6.272326408e-15 1.205212209e-05)
(-0.000306702652 -7.375176858e-15 1.417178852e-05)
(-0.0003407897412 -8.194833701e-15 1.574684833e-05)
(-0.000361780173 -8.699638232e-15 1.671675178e-05)
(-0.0003745969888 1.598317549e-12 -0.00408277323)
(-0.0003675092988 1.598487944e-12 -0.004083100726)
(-0.0003465191869 1.59899264e-12 -0.004084070599)
(-0.0003124326175 1.599812297e-12 -0.004085645611)
(-0.000266559974 1.600915581e-12 -0.004087765213)
(-0.0002106634962 1.602259558e-12 -0.004090347978)
(-0.0001468918074 1.603793053e-12 -0.004093294627)
(-7.769608997e-05 1.605457087e-12 -0.0040964919)
(-5.734642682e-06 1.607187473e-12 -0.004099816967)
(6.62268046e-05 1.60891786e-12 -0.004103142033)
(0.000135422522 1.610581894e-12 -0.004106339306)
(0.0001991942108 1.612115389e-12 -0.004109285955)
(0.0002550906886 1.613459366e-12 -0.00411186872)
(0.000300963332 1.61456265e-12 -0.004113988322)
(0.0003350499014 1.615382307e-12 -0.004115563334)
(0.0003560400132 1.615887003e-12 -0.004116533208)
(0.0003631277031 1.616057395e-12 -0.004116860703)
(0.0003560400131 1.615887003e-12 -0.004116533208)
(0.0003350499013 1.615382307e-12 -0.004115563334)
(0.0003009633319 1.61456265e-12 -0.004113988322)
(0.0002550906884 1.613459366e-12 -0.00411186872)
(0.0001991942106 1.612115389e-12 -0.004109285955)
(0.0001354225217 1.610581894e-12 -0.004106339306)
(6.622680432e-05 1.60891786e-12 -0.004103142033)
(-5.734642971e-06 1.607187473e-12 -0.004099816967)
(-7.769609025e-05 1.605457087e-12 -0.0040964919)
(-0.0001468918077 1.603793053e-12 -0.004093294627)
(-0.0002106634965 1.602259558e-12 -0.004090347978)
(-0.0002665599742 1.600915581e-12 -0.004087765213)
(-0.0003124326177 1.599812297e-12 -0.004085645611)
(-0.000346519187 1.59899264e-12 -0.004084070599)
(-0.0003675092988 1.598487944e-12 -0.004083100726)
(-0.0003803032141 3.204807919e-12 -0.008182466717)
(-0.0003732158483 3.204978275e-12 -0.008182794183)
(-0.0003522266967 3.205483188e-12 -0.008183763968)
(-0.0003181416867 3.206302411e-12 -0.008185338835)
(-0.0002722711418 3.207405695e-12 -0.008187458242)
(-0.0002163772211 3.208749672e-12 -0.008190040771)
(-0.0001526084497 3.210283168e-12 -0.008192987149)
(-8.341589782e-05 3.211946334e-12 -0.008196184129)
(-1.145774261e-05 3.213676721e-12 -0.008199508891)
(6.05004126e-05 3.215407107e-12 -0.008202833653)
(0.0001296929645 3.217071141e-12 -0.008206030633)
(0.0001934617359 3.218604636e-12 -0.008208977012)
(0.0002493556565 3.219948613e-12 -0.00821155954)
(0.0002952262014 3.221051897e-12 -0.008213678948)
(0.0003293112113 3.221871554e-12 -0.008215253815)
(0.0003503003629 3.222376034e-12 -0.0082162236)
(0.0003573877286 3.22254652e-12 -0.008216551065)
(0.0003503003628 3.222376034e-12 -0.0082162236)
(0.0003293112112 3.221871554e-12 -0.008215253815)
(0.0002952262012 3.221051897e-12 -0.008213678948)
(0.0002493556563 3.219948613e-12 -0.00821155954)
(0.0001934617356 3.218604636e-12 -0.008208977012)
(0.0001296929642 3.217071141e-12 -0.008206030633)
(6.050041232e-05 3.215407107e-12 -0.008202833653)
(-1.14577429e-05 3.213676721e-12 -0.008199508891)
(-8.34158981e-05 3.211946334e-12 -0.008196184129)
(-0.00015260845 3.210283168e-12 -0.008192987149)
(-0.0002163772214 3.208749672e-12 -0.008190040771)
(-0.000272271142 3.207405695e-12 -0.008187458242)
(-0.0003181416869 3.206302411e-12 -0.008185338835)
(-0.0003522266968 3.205483188e-12 -0.008183763968)
(-0.0003732158484 3.204978275e-12 -0.008182794183)
(-0.0003859751106 4.811901857e-12 -0.01228191118)
(-0.0003788882852 4.812072182e-12 -0.01228223859)
(-0.000357900734 4.812576986e-12 -0.01228320823)
(-0.0003238183227 4.813396209e-12 -0.01228478286)
(-0.0002779512751 4.81449906e-12 -0.01228690194)
(-0.000222061616 4.815843037e-12 -0.01228948407)
(-0.0001582977066 4.817376532e-12 -0.01229243)
(-8.911043021e-05 4.819039265e-12 -0.01229562649)
(-1.715776137e-05 4.820769652e-12 -0.01229895075)
(5.479490748e-05 4.822500038e-12 -0.012302275)
(0.0001239821838 4.824163638e-12 -0.01230547149)
(0.0001877460933 4.825697134e-12 -0.01230841742)
(0.0002436357523 4.827041111e-12 -0.01231099955)
(0.0002895027998 4.828143961e-12 -0.01231311864)
(0.0003235852111 4.828963618e-12 -0.01231469326)
(0.0003445727623 4.829467989e-12 -0.0123156629)
(0.0003516595876 4.829638384e-12 -0.01231599032)
(0.0003445727622 4.829467989e-12 -0.0123156629)
(0.0003235852109 4.828963618e-12 -0.01231469326)
(0.0002895027997 4.828143961e-12 -0.01231311864)
(0.0002436357521 4.827041111e-12 -0.01231099955)
(0.000187746093 4.825697134e-12 -0.01230841742)
(0.0001239821836 4.824163638e-12 -0.01230547149)
(5.479490719e-05 4.822500038e-12 -0.012302275)
(-1.715776166e-05 4.820769652e-12 -0.01229895075)
(-8.91104305e-05 4.819039265e-12 -0.01229562649)
(-0.0001582977069 4.817376532e-12 -0.01229243)
(-0.0002220616163 4.815843037e-12 -0.01228948407)
(-0.0002779512753 4.81449906e-12 -0.01228690194)
(-0.0003238183229 4.813396209e-12 -0.01228478286)
(-0.0003579007341 4.812576986e-12 -0.01228320823)
(-0.0003788882853 4.812072182e-12 -0.01228223859)
(-0.000391601144 6.419897555e-12 -0.01638098159)
(-0.0003845150751 6.420067928e-12 -0.01638130894)
(-0.0003635297641 6.420572624e-12 -0.01638227837)
(-0.000329450991 6.421392064e-12 -0.01638385266)
(-0.0002835888394 6.422494914e-12 -0.01638597129)
(-0.0002277051463 6.423838458e-12 -0.01638855287)
(-0.0001639480433 6.42537152e-12 -0.01639149817)
(-9.476815225e-05 6.427034252e-12 -0.01639469398)
(-2.282316395e-05 6.428763771e-12 -0.01639801752)
(4.912182435e-05 6.430493291e-12 -0.01640134106)
(0.0001183017153 6.432157758e-12 -0.01640453687)
(0.0001820588183 6.43369082e-12 -0.01640748217)
(0.0002379425114 6.435034363e-12 -0.01641006375)
(0.000283804663 6.436137213e-12 -0.01641218238)
(0.0003178834361 6.43695622e-12 -0.01641375667)
(0.000338868747 6.437460699e-12 -0.0164147261)
(0.0003459548158 6.437631175e-12 -0.01641505344)
(0.0003388687469 6.437460699e-12 -0.0164147261)
(0.0003178834359 6.43695622e-12 -0.01641375667)
(0.0002838046628 6.436137213e-12 -0.01641218238)
(0.0002379425112 6.435034363e-12 -0.01641006375)
(0.0001820588181 6.43369082e-12 -0.01640748217)
(0.0001183017151 6.432157758e-12 -0.01640453687)
(4.912182406e-05 6.430493291e-12 -0.01640134106)
(-2.282316424e-05 6.428763771e-12 -0.01639801752)
(-9.476815253e-05 6.427034252e-12 -0.01639469398)
(-0.0001639480435 6.42537152e-12 -0.01639149817)
(-0.0002277051465 6.423838458e-12 -0.01638855287)
(-0.0002835888396 6.422494914e-12 -0.01638597129)
(-0.0003294509911 6.421392064e-12 -0.01638385266)
(-0.0003635297642 6.420572624e-12 -0.01638227837)
(-0.0003845150752 6.420067928e-12 -0.01638130894)
(-0.0003971697757 8.029089349e-12 -0.02047955294)
(-0.0003900846794 8.029259657e-12 -0.02047988019)
(-0.000369102249 8.029764137e-12 -0.02048084936)
(-0.0003350281537 8.030583577e-12 -0.02048242321)
(-0.0002891722974 8.031685993e-12 -0.02048454126)
(-0.0002332962751 8.033029537e-12 -0.02048712213)
(-0.0001695479237 8.034562165e-12 -0.02049006662)
(-0.0001003775287 8.036224464e-12 -0.02049326155)
(-2.844241589e-05 8.037953983e-12 -0.02049658418)
(4.349269688e-05 8.039683502e-12 -0.0204999068)
(0.0001126630919 8.041346668e-12 -0.02050310173)
(0.0001764114433 8.042879297e-12 -0.02050604622)
(0.0002322874655 8.04422284e-12 -0.02050862709)
(0.0002781433218 8.045325257e-12 -0.02051074514)
(0.0003122174171 8.046144263e-12 -0.020512319)
(0.0003331998474 8.046648959e-12 -0.02051328816)
(0.0003402849436 8.046819226e-12 -0.02051361541)
(0.0003331998474 8.046648959e-12 -0.02051328816)
(0.0003122174169 8.046144263e-12 -0.020512319)
(0.0002781433216 8.045325257e-12 -0.02051074514)
(0.0002322874653 8.04422284e-12 -0.02050862709)
(0.000176411443 8.042879297e-12 -0.02050604622)
(0.0001126630916 8.041346668e-12 -0.02050310173)
(4.34926966e-05 8.039683502e-12 -0.0204999068)
(-2.844241618e-05 8.037953983e-12 -0.02049658418)
(-0.000100377529 8.036224464e-12 -0.02049326155)
(-0.000169547924 8.034562165e-12 -0.02049006662)
(-0.0002332962754 8.033029537e-12 -0.02048712213)
(-0.0002891722976 8.031685993e-12 -0.02048454126)
(-0.0003350281538 8.030583577e-12 -0.02048242321)
(-0.0003691022491 8.029764137e-12 -0.02048084936)
(-0.0003900846795 8.029259657e-12 -0.02047988019)
(-0.0004026694541 9.639766779e-12 -0.02457750008)
(-0.0003955855469 9.639937069e-12 -0.02457782723)
(-0.000374606638 9.64044144e-12 -0.02457879607)
(-0.0003405382613 9.641260446e-12 -0.02458036939)
(-0.000294690101 9.642362863e-12 -0.02458248673)
(-0.0002388234564 9.643705539e-12 -0.02458506673)
(-0.0001750858039 9.645238167e-12 -0.02458801023)
(-0.0001059270177 9.646900466e-12 -0.02459120408)
(-3.400397783e-05 9.648629118e-12 -0.02459452559)
(3.791906206e-05 9.65035777e-12 -0.02459784711)
(0.0001070778482 9.652020936e-12 -0.02460104096)
(0.0001708155007 9.653553564e-12 -0.02460398446)
(0.0002266821453 9.65489624e-12 -0.02460656446)
(0.0002725303055 9.655998657e-12 -0.0246086818)
(0.0003065986821 9.656817663e-12 -0.02461025512)
(0.000327577591 9.657321817e-12 -0.02461122396)
(0.0003346614981 9.657492074e-12 -0.0246115511)
(0.000327577591 9.657321817e-12 -0.02461122396)
(0.000306598682 9.656817663e-12 -0.02461025512)
(0.0002725303053 9.655998657e-12 -0.0246086818)
(0.0002266821451 9.65489624e-12 -0.02460656446)
(0.0001708155005 9.653553564e-12 -0.02460398446)
(0.0001070778479 9.652020936e-12 -0.02460104096)
(3.791906178e-05 9.65035777e-12 -0.02459784711)
(-3.400397812e-05 9.648629118e-12 -0.02459452559)
(-0.000105927018 9.646900466e-12 -0.02459120408)
(-0.0001750858042 9.645238167e-12 -0.02458801023)
(-0.0002388234567 9.643705539e-12 -0.02458506673)
(-0.0002946901012 9.642362863e-12 -0.02458248673)
(-0.0003405382615 9.641260446e-12 -0.02458036939)
(-0.0003746066381 9.64044144e-12 -0.02457879607)
(-0.000395585547 9.639937069e-12 -0.02457782723)
(-0.0004080885999 1.125221395e-11 -0.02867469771)
(-0.0004010060987 1.125238412e-11 -0.02867502472)
(-0.0003800313536 1.125288838e-11 -0.02867599317)
(-0.0003459697388 1.125370717e-11 -0.02867756587)
(-0.0003001306783 1.125480915e-11 -0.02867968237)
(-0.000244275122 1.125615183e-11 -0.02868226134)
(-0.00018055012 1.125768359e-11 -0.02868520367)
(-0.0001114050603 1.125934502e-11 -0.02868839625)
(-3.949629547e-05 1.126107367e-11 -0.02869171644)
(3.241246932e-05 1.126280232e-11 -0.02869503663)
(0.000101557529 1.126446462e-11 -0.02869822922)
(0.000165282531 1.126599638e-11 -0.02870117154)
(0.0002211380873 1.126733906e-11 -0.02870375052)
(0.0002669771477 1.126844104e-11 -0.02870586701)
(0.0003010387625 1.12692594e-11 -0.02870743972)
(0.0003220135076 1.126976344e-11 -0.02870840817)
(0.0003290960087 1.126993382e-11 -0.02870873518)
(0.0003220135075 1.126976344e-11 -0.02870840817)
(0.0003010387624 1.12692594e-11 -0.02870743972)
(0.0002669771475 1.126844104e-11 -0.02870586701)
(0.0002211380871 1.126733906e-11 -0.02870375052)
(0.0001652825308 1.126599638e-11 -0.02870117154)
(0.0001015575287 1.126446462e-11 -0.02869822922)
(3.241246903e-05 1.126280232e-11 -0.02869503663)
(-3.949629576e-05 1.126107367e-11 -0.02869171644)
(-0.0001114050605 1.125934502e-11 -0.02868839625)
(-0.0001805501202 1.125768359e-11 -0.02868520367)
(-0.0002442751222 1.125615183e-11 -0.02868226134)
(-0.0003001306785 1.125480915e-11 -0.02867968237)
(-0.0003459697389 1.125370717e-11 -0.02867756587)
(-0.0003800313537 1.125288838e-11 -0.02867599317)
(-0.0004010060988 1.125238412e-11 -0.02867502472)
(-0.000413415585 1.286670924e-11 -0.0327710201)
(-0.0004063347076 1.286687944e-11 -0.03277134696)
(-0.0003853647712 1.286738337e-11 -0.03277231497)
(-0.0003513109653 1.286820173e-11 -0.03277388695)
(-0.0003054824139 1.286930328e-11 -0.03277600247)
(-0.0002496396631 1.287064552e-11 -0.03277858026)
(-0.0001859292707 1.287217685e-11 -0.03278152123)
(-0.0001168000632 1.287383828e-11 -0.03278471235)
(-4.490778431e-05 1.287556606e-11 -0.03278803101)
(2.698449462e-05 1.287729385e-11 -0.03279134968)
(9.611370206e-05 1.287895528e-11 -0.0327945408)
(0.0001598240944 1.288048661e-11 -0.03279748177)
(0.0002156668452 1.288182885e-11 -0.03280005956)
(0.0002614953965 1.28829304e-11 -0.03280217508)
(0.0002955492024 1.288374876e-11 -0.03280374706)
(0.0003165191387 1.288425269e-11 -0.03280471507)
(0.0003236000161 1.288442283e-11 -0.03280504193)
(0.0003165191387 1.288425269e-11 -0.03280471507)
(0.0002955492023 1.288374876e-11 -0.03280374706)
(0.0002614953964 1.28829304e-11 -0.03280217508)
(0.000215666845 1.288182885e-11 -0.03280005956)
(0.0001598240942 1.288048661e-11 -0.03279748177)
(9.611370179e-05 1.287895528e-11 -0.0327945408)
(2.698449434e-05 1.287729385e-11 -0.03279134968)
(-4.49077846e-05 1.287556606e-11 -0.03278803101)
(-0.0001168000635 1.287383828e-11 -0.03278471235)
(-0.000185929271 1.287217685e-11 -0.03278152123)
(-0.0002496396633 1.287064552e-11 -0.03277858026)
(-0.0003054824141 1.286930328e-11 -0.03277600247)
(-0.0003513109655 1.286820173e-11 -0.03277388695)
(-0.0003853647713 1.286738337e-11 -0.03277231497)
(-0.0004063347076 1.286687944e-11 -0.03277134696)
(-0.000418638711 1.44835255e-11 -0.03686634095)
(-0.0004115596763 1.44836956e-11 -0.03686666764)
(-0.0003905951971 1.448419943e-11 -0.03686763514)
(-0.0003565502533 1.448501779e-11 -0.0368692063)
(-0.0003107336283 1.44861189e-11 -0.03687132072)
(-0.0002549054099 1.448746071e-11 -0.03687389717)
(-0.0001912115975 1.448899117e-11 -0.03687683661)
(-0.0001221003801 1.449065173e-11 -0.03688002606)
(-5.022681033e-05 1.449237865e-11 -0.036883343)
(2.164675944e-05 1.449410557e-11 -0.03688665993)
(9.075797678e-05 1.4495767e-11 -0.03688984938)
(0.0001544517892 1.449729746e-11 -0.03689278882)
(0.0002102800076 1.449863927e-11 -0.03689536527)
(0.0002560966325 1.449974038e-11 -0.03689747969)
(0.0002901415762 1.450055787e-11 -0.03689905085)
(0.0003111060554 1.450106192e-11 -0.03690001835)
(0.00031818509 1.450123195e-11 -0.03690034504)
(0.0003111060553 1.450106192e-11 -0.03690001835)
(0.0002901415761 1.450055787e-11 -0.03689905085)
(0.0002560966324 1.449974038e-11 -0.03689747969)
(0.0002102800074 1.449863927e-11 -0.03689536527)
(0.000154451789 1.449729746e-11 -0.03689278882)
(9.075797651e-05 1.4495767e-11 -0.03688984938)
(2.164675916e-05 1.449410557e-11 -0.03688665993)
(-5.022681062e-05 1.449237865e-11 -0.036883343)
(-0.0001221003804 1.449065173e-11 -0.03688002606)
(-0.0001912115977 1.448899117e-11 -0.03687683661)
(-0.0002549054102 1.448746071e-11 -0.03687389717)
(-0.0003107336285 1.44861189e-11 -0.03687132072)
(-0.0003565502535 1.448501779e-11 -0.0368692063)
(-0.0003905951972 1.448419943e-11 -0.03686763514)
(-0.0004115596764 1.44836956e-11 -0.03686666764)
(-0.0004237461837 1.610293072e-11 -0.04096053311)
(-0.0004166692124 1.610310073e-11 -0.04096085961)
(-0.0003957108439 1.610360434e-11 -0.04096182655)
(-0.0003616758236 1.610442205e-11 -0.04096339679)
(-0.0003158725532 1.610552273e-11 -0.04096550997)
(-0.0002600606077 1.610686367e-11 -0.04096808492)
(-0.0001963853607 1.610839327e-11 -0.04097102264)
(-0.0001272942879 1.611005426e-11 -0.04097421023)
(-5.544166784e-05 1.611178031e-11 -0.04097752523)
(1.64109522e-05 1.611350636e-11 -0.04098084022)
(8.550202497e-05 1.611516649e-11 -0.04098402781)
(0.0001491772719 1.611669609e-11 -0.04098696554)
(0.0002049892174 1.611803703e-11 -0.04098954048)
(0.0002507924878 1.611913771e-11 -0.04099165366)
(0.000284827508 1.611995541e-11 -0.0409932239)
(0.0003057858765 1.612045903e-11 -0.04099419084)
(0.0003128628477 1.612062915e-11 -0.04099451734)
(0.0003057858764 1.612045903e-11 -0.04099419084)
(0.0002848275079 1.611995541e-11 -0.0409932239)
(0.0002507924876 1.611913771e-11 -0.04099165366)
(0.0002049892172 1.611803703e-11 -0.04098954048)
(0.0001491772717 1.611669609e-11 -0.04098696554)
(8.55020247e-05 1.611516649e-11 -0.04098402781)
(1.641095191e-05 1.611350636e-11 -0.04098084022)
(-5.544166813e-05 1.611178031e-11 -0.04097752523)
(-0.0001272942882 1.611005426e-11 -0.04097421023)
(-0.000196385361 1.610839327e-11 -0.04097102264)
(-0.0002600606079 1.610686367e-11 -0.04096808492)
(-0.0003158725534 1.610552273e-11 -0.04096550997)
(-0.0003616758237 1.610442205e-11 -0.04096339679)
(-0.000395710844 1.610360434e-11 -0.04096182655)
(-0.0004166692124 1.610310073e-11 -0.04096085961)
(-0.000428726087 1.772518925e-11 -0.0450534683)
(-0.000421651402 1.772535927e-11 -0.0450537946)
(-0.0004006998043 1.772586244e-11 -0.04505476091)
(-0.0003666757792 1.77266795e-11 -0.04505633013)
(-0.000320887306 1.772777975e-11 -0.04505844195)
(-0.0002650933909 1.772911982e-11 -0.04506101522)
(-0.0002014387148 1.773064898e-11 -0.04506395104)
(-0.0001323699624 1.773230868e-11 -0.04506713657)
(-6.054055495e-05 1.773403386e-11 -0.04507044942)
(1.128885252e-05 1.773575904e-11 -0.04507376227)
(8.035760486e-05 1.773741874e-11 -0.0450769478)
(0.000144012281 1.77389479e-11 -0.04507988362)
(0.000199806196 1.774028797e-11 -0.0450824569)
(0.0002455946692 1.774138822e-11 -0.04508456871)
(0.0002796186942 1.774220527e-11 -0.04508613793)
(0.0003005702919 1.774270889e-11 -0.04508710425)
(0.0003076449768 1.774287878e-11 -0.04508743054)
(0.0003005702918 1.774270889e-11 -0.04508710425)
(0.0002796186941 1.774220527e-11 -0.04508613793)
(0.0002455946691 1.774138822e-11 -0.04508456871)
(0.0001998061958 1.774028797e-11 -0.0450824569)
(0.0001440122808 1.77389479e-11 -0.04507988362)
(8.035760459e-05 1.773741874e-11 -0.0450769478)
(1.128885223e-05 1.773575904e-11 -0.04507376227)
(-6.054055524e-05 1.773403386e-11 -0.04507044942)
(-0.0001323699627 1.773230868e-11 -0.04506713657)
(-0.000201438715 1.773064898e-11 -0.04506395104)
(-0.0002650933912 1.772911982e-11 -0.04506101522)
(-0.0003208873062 1.772777975e-11 -0.04505844195)
(-0.0003666757794 1.77266795e-11 -0.04505633013)
(-0.0004006998044 1.772586244e-11 -0.04505476091)
(-0.000421651402 1.772535927e-11 -0.0450537946)
(-0.000433566363 1.935056377e-11 -0.04914501687)
(-0.0004264941897 1.935073369e-11 -0.04914534293)
(-0.0004055500306 1.935123654e-11 -0.04914630855)
(-0.0003715380853 1.935205381e-11 -0.04914787666)
(-0.0003257658686 1.935315319e-11 -0.04914998697)
(-0.0002699917624 1.935449283e-11 -0.04915255841)
(-0.0002063596859 1.935602113e-11 -0.04915549215)
(-0.0001373154555 1.935767952e-11 -0.04915867541)
(-6.551155001e-05 1.935940384e-11 -0.0491619859)
(6.292355441e-06 1.936112815e-11 -0.04916529639)
(7.53365859e-05 1.936278655e-11 -0.04916847965)
(0.0001389686623 1.936431484e-11 -0.04917141339)
(0.0001947427685 1.936565448e-11 -0.04917398483)
(0.0002405149852 1.936675386e-11 -0.04917609514)
(0.0002745269304 1.93675707e-11 -0.04917766325)
(0.0002954710895 1.936807377e-11 -0.04917862888)
(0.0003025432627 1.936824349e-11 -0.04917895494)
(0.0002954710894 1.936807377e-11 -0.04917862888)
(0.0002745269303 1.93675707e-11 -0.04917766325)
(0.000240514985 1.936675386e-11 -0.04917609514)
(0.0001947427683 1.936565448e-11 -0.04917398483)
(0.0001389686621 1.936431484e-11 -0.04917141339)
(7.533658563e-05 1.936278655e-11 -0.04916847965)
(6.292355153e-06 1.936112815e-11 -0.04916529639)
(-6.55115503e-05 1.935940384e-11 -0.0491619859)
(-0.0001373154557 1.935767952e-11 -0.04915867541)
(-0.0002063596862 1.935602113e-11 -0.04915549215)
(-0.0002699917626 1.935449283e-11 -0.04915255841)
(-0.0003257658688 1.935315319e-11 -0.04914998697)
(-0.0003715380855 1.935205381e-11 -0.04914787666)
(-0.0004055500307 1.935123654e-11 -0.04914630855)
(-0.0004264941898 1.935073369e-11 -0.04914534293)
(-0.0004382547938 2.09793178e-11 -0.0532350475)
(-0.0004311853608 2.097948757e-11 -0.05323537331)
(-0.0004102493169 2.097999031e-11 -0.05323633818)
(-0.0003762505503 2.09808065e-11 -0.05323790507)
(-0.000330496069 2.098190545e-11 -0.05324001375)
(-0.0002747435736 2.098324422e-11 -0.05324258319)
(-0.0002111361527 2.098477121e-11 -0.05324551465)
(-0.0001421186748 2.098642874e-11 -0.05324869544)
(-7.03425913e-05 2.098815219e-11 -0.05325200336)
(1.433492245e-06 2.098987564e-11 -0.05325531128)
(7.045097009e-05 2.099153316e-11 -0.05325849207)
(0.000134058391 2.099306015e-11 -0.05326142353)
(0.0001898108863 2.099439893e-11 -0.05326399298)
(0.0002355653676 2.099549787e-11 -0.05326610165)
(0.0002695641342 2.09963145e-11 -0.05326766854)
(0.000290500178 2.099681702e-11 -0.05326863341)
(0.000297569611 2.099698679e-11 -0.05326895922)
(0.000290500178 2.099681702e-11 -0.05326863341)
(0.0002695641341 2.09963145e-11 -0.05326766854)
(0.0002355653674 2.099549787e-11 -0.05326610165)
(0.0001898108861 2.099439893e-11 -0.05326399298)
(0.0001340583907 2.099306015e-11 -0.05326142353)
(7.045096982e-05 2.099153316e-11 -0.05325849207)
(1.433491957e-06 2.098987564e-11 -0.05325531128)
(-7.034259159e-05 2.098815219e-11 -0.05325200336)
(-0.0001421186751 2.098642874e-11 -0.05324869544)
(-0.000211136153 2.098477121e-11 -0.05324551465)
(-0.0002747435739 2.098324422e-11 -0.05324258319)
(-0.0003304960692 2.098190545e-11 -0.05324001375)
(-0.0003762505505 2.09808065e-11 -0.05323790507)
(-0.000410249317 2.097999031e-11 -0.05323633818)
(-0.0004311853609 2.097948757e-11 -0.05323537331)
(-0.0004427790005 2.261171896e-11 -0.05732342714)
(-0.0004357125394 2.26118886e-11 -0.05732375268)
(-0.0004147852967 2.261239113e-11 -0.05732471674)
(-0.0003808008228 2.261320688e-11 -0.05732628231)
(-0.0003350655761 2.261430496e-11 -0.05732838921)
(-0.0002793365184 2.261564287e-11 -0.05733095649)
(-0.0002157558374 2.261716942e-11 -0.05733388548)
(-0.0001467673736 2.261882522e-11 -0.05733706359)
(-7.502146393e-05 2.26205478e-11 -0.05734036872)
(-3.275554221e-06 2.262227038e-11 -0.05734367386)
(6.571290948e-05 2.262392617e-11 -0.05734685197)
(0.0001292935905 2.262545273e-11 -0.05734978095)
(0.0001850226482 2.262679063e-11 -0.05735234824)
(0.0002307578948 2.262788871e-11 -0.05735445513)
(0.0002647423687 2.262870447e-11 -0.05735602071)
(0.0002856696113 2.262920656e-11 -0.05735698477)
(0.0002927360723 2.262937629e-11 -0.0573573103)
(0.0002856696112 2.262920656e-11 -0.05735698477)
(0.0002647423686 2.262870447e-11 -0.05735602071)
(0.0002307578946 2.262788871e-11 -0.05735445513)
(0.000185022648 2.262679063e-11 -0.05735234824)
(0.0001292935903 2.262545273e-11 -0.05734978095)
(6.57129092e-05 2.262392617e-11 -0.05734685197)
(-3.275554509e-06 2.262227038e-11 -0.05734367386)
(-7.502146422e-05 2.26205478e-11 -0.05734036872)
(-0.0001467673739 2.261882522e-11 -0.05733706359)
(-0.0002157558376 2.261716942e-11 -0.05733388548)
(-0.0002793365187 2.261564287e-11 -0.05733095649)
(-0.0003350655763 2.261430496e-11 -0.05732838921)
(-0.0003808008229 2.261320688e-11 -0.05732628231)
(-0.0004147852968 2.261239113e-11 -0.05732471674)
(-0.0004357125394 2.26118886e-11 -0.05732375268)
(-0.0004471264499 2.424804284e-11 -0.06141002091)
(-0.0004400631955 2.424821238e-11 -0.06141034614)
(-0.0004191454494 2.424871436e-11 -0.06141130933)
(-0.0003851763972 2.424952947e-11 -0.06141287348)
(-0.0003394619047 2.425062668e-11 -0.06141497846)
(-0.0002837581363 2.425196372e-11 -0.06141754341)
(-0.0002202063074 2.425348897e-11 -0.06142046973)
(-0.0001512491499 2.42551439e-11 -0.06142364495)
(-7.953579773e-05 2.425686475e-11 -0.06142694708)
(-7.82244554e-06 2.425858559e-11 -0.06143024921)
(6.113471194e-05 2.426024139e-11 -0.06143342443)
(0.0001246865408 2.426176664e-11 -0.06143635075)
(0.0001803903092 2.426310368e-11 -0.0614389157)
(0.0002261048016 2.426420089e-11 -0.06144102068)
(0.0002600738537 2.426501599e-11 -0.06144258483)
(0.0002809915998 2.426551798e-11 -0.06144354802)
(0.0002880548541 2.426568755e-11 -0.06144387325)
(0.0002809915997 2.426551798e-11 -0.06144354802)
(0.0002600738536 2.426501599e-11 -0.06144258483)
(0.0002261048014 2.426420089e-11 -0.06144102068)
(0.000180390309 2.426310368e-11 -0.0614389157)
(0.0001246865405 2.426176664e-11 -0.06143635075)
(6.113471166e-05 2.426024139e-11 -0.06143342443)
(-7.822445829e-06 2.425858559e-11 -0.06143024921)
(-7.953579803e-05 2.425686475e-11 -0.06142694708)
(-0.0001512491502 2.42551439e-11 -0.06142364495)
(-0.0002202063077 2.425348897e-11 -0.06142046973)
(-0.0002837581365 2.425196372e-11 -0.06141754341)
(-0.0003394619049 2.425062668e-11 -0.06141497846)
(-0.0003851763974 2.424952947e-11 -0.06141287348)
(-0.0004191454495 2.424871436e-11 -0.06141130933)
(-0.0004400631955 2.424821238e-11 -0.06141034614)
(-0.0004512844871 2.58885776e-11 -0.06549469221)
(-0.0004442246769 2.588874698e-11 -0.06549501712)
(-0.0004233171307 2.588924864e-11 -0.06549597937)
(-0.0003893646426 2.58900631e-11 -0.06549754199)
(-0.0003436724415 2.589115944e-11 -0.06549964491)
(-0.0002879958354 2.589249561e-11 -0.06550220735)
(-0.0002244749957 2.589401957e-11 -0.06550513082)
(-0.0001555514632 2.589567276e-11 -0.06550830294)
(-8.387307992e-05 2.589739274e-11 -0.06551160184)
(-1.219469668e-05 2.589911272e-11 -0.06551490074)
(5.672883584e-05 2.590076677e-11 -0.06551807286)
(0.0001202496755 2.590229073e-11 -0.06552099633)
(0.0001759262815 2.59036269e-11 -0.06552355877)
(0.0002216184826 2.590472324e-11 -0.06552566169)
(0.0002555709707 2.59055377e-11 -0.06552722431)
(0.0002764785168 2.590603936e-11 -0.06552818656)
(0.000283538327 2.590620873e-11 -0.06552851147)
(0.0002764785167 2.590603936e-11 -0.06552818656)
(0.0002555709706 2.59055377e-11 -0.06552722431)
(0.0002216184825 2.590472324e-11 -0.06552566169)
(0.0001759262813 2.59036269e-11 -0.06552355877)
(0.0001202496752 2.590229073e-11 -0.06552099633)
(5.672883556e-05 2.590076677e-11 -0.06551807286)
(-1.219469697e-05 2.589911272e-11 -0.06551490074)
(-8.387308022e-05 2.589739274e-11 -0.06551160184)
(-0.0001555514635 2.589567276e-11 -0.06550830294)
(-0.000224474996 2.589401957e-11 -0.06550513082)
(-0.0002879958356 2.589249561e-11 -0.06550220735)
(-0.0003436724417 2.589115944e-11 -0.06549964491)
(-0.0003893646428 2.58900631e-11 -0.06549754199)
(-0.0004233171309 2.588924864e-11 -0.06549597937)
(-0.0004442246769 2.588874698e-11 -0.06549501712)
(-0.0004552403867 2.753362898e-11 -0.06957730309)
(-0.0004481842601 2.753379827e-11 -0.06957762767)
(-0.0004272876231 2.753429928e-11 -0.06957858891)
(-0.0003933528507 2.753511308e-11 -0.06958014989)
(-0.0003476844909 2.753620856e-11 -0.06958225062)
(-0.0002920369357 2.753754343e-11 -0.06958481038)
(-0.00022854924 2.753906651e-11 -0.06958773079)
(-0.0001596616704 2.754071884e-11 -0.06959089959)
(-8.80206875e-05 2.754243708e-11 -0.06959419505)
(-1.637970461e-05 2.754415532e-11 -0.0695974905)
(5.250786497e-05 2.754580765e-11 -0.0696006593)
(0.0001159955607 2.754733074e-11 -0.06960357971)
(0.0001716431158 2.754866561e-11 -0.06960613947)
(0.0002173114756 2.754976108e-11 -0.0696082402)
(0.000251246248 2.755057489e-11 -0.06960980119)
(0.0002721428849 2.755107633e-11 -0.06961076242)
(0.0002791990114 2.755124553e-11 -0.069611087)
(0.0002721428848 2.755107633e-11 -0.06961076242)
(0.0002512462478 2.755057489e-11 -0.06960980119)
(0.0002173114754 2.754976108e-11 -0.0696082402)
(0.0001716431156 2.754866561e-11 -0.06960613947)
(0.0001159955604 2.754733074e-11 -0.06960357971)
(5.250786469e-05 2.754580765e-11 -0.0696006593)
(-1.63797049e-05 2.754415532e-11 -0.0695974905)
(-8.802068779e-05 2.754243708e-11 -0.06959419505)
(-0.0001596616707 2.754071884e-11 -0.06959089959)
(-0.0002285492403 2.753906651e-11 -0.06958773079)
(-0.000292036936 2.753754343e-11 -0.06958481038)
(-0.0003476844911 2.753620856e-11 -0.06958225062)
(-0.0003933528509 2.753511308e-11 -0.06958014989)
(-0.0004272876233 2.753429928e-11 -0.06957858891)
(-0.0004481842602 2.753379827e-11 -0.06957762767)
(-0.000458981434 2.918352562e-11 -0.07365771484)
(-0.0004519292313 2.918369474e-11 -0.07365803905)
(-0.0004310442147 2.918419542e-11 -0.07365899922)
(-0.0003971283132 2.918500858e-11 -0.07366055847)
(-0.0003514853491 2.918610319e-11 -0.07366265685)
(-0.0002958687391 2.918743676e-11 -0.07366521376)
(-0.0002324163484 2.918895811e-11 -0.07366813092)
(-0.0001635670866 2.919061e-11 -0.07367129619)
(-9.196594264e-05 2.919232651e-11 -0.07367458797)
(-2.036479871e-05 2.919404302e-11 -0.07367787975)
(4.848446306e-05 2.919569404e-11 -0.07368104502)
(0.0001119368538 2.919721539e-11 -0.07368396218)
(0.0001675534638 2.919854896e-11 -0.07368651909)