/*--------------------------------*- C++ -*----------------------------------*\
| =========                 |                                                 |
| \\      /  F ield         | OpenFOAM: The Open Source CFD Toolbox           |
|  \\    /   O peration     | Version:  2312                                  |
|   \\  /    A nd           | Website:  www.openfoam.com                      |
|    \\/     M anipulation  |                                                 |
\*---------------------------------------------------------------------------*/
FoamFile
{
    version     2.0;
    format      ascii;
    arch        "LSB;label=32;scalar=64";
    class       surfaceVectorField;
    location    "0.23/beam";
    object      Q;
}
// * * * * * * * * * * * * * * * * * * * * * * * * * * * * * * * * * * * * * //

dimensions      [1 1 -2 0 0 0 0];

oriented        oriented;

internalField   nonuniform List<vector> 
59
(
(0.6230103207 2.260319255e-11 -0.05769797483)
(0.6230103645 2.2609578e-11 -0.05769531658)
(0.6230104388 2.262018727e-11 -0.05769088678)
(0.6230105454 2.263497243e-11 -0.05768468596)
(0.623010687 2.265386998e-11 -0.05767671412)
(0.6230108673 2.267680454e-11 -0.05766697002)
(0.6230110906 2.270369344e-11 -0.05765545044)
(0.6230113624 2.27344526e-11 -0.05764214944)
(0.623011689 2.276900325e-11 -0.05762705766)
(0.6230120779 2.280727971e-11 -0.05761016188)
(0.6230125374 2.284923803e-11 -0.05759144484)
(0.6230130767 2.289486529e-11 -0.05757088546)
(0.623013706 2.294418936e-11 -0.05754845955)
(0.6230144358 2.299728871e-11 -0.05752414116)
(0.6230152773 2.305430186e-11 -0.05749790448)
(0.6230162417 2.311543594e-11 -0.05746972645)
(0.6230173399 2.318097359e-11 -0.05743959008)
(0.6230185821 2.325127754e-11 -0.05740748834)
(0.6230199774 2.332679188e-11 -0.05737342862)
(0.6230215331 2.34080392e-11 -0.05733743756)
(0.6230232546 2.349561248e-11 -0.05729956613)
(0.6230251443 2.359016092e-11 -0.0572598946)
(0.623027201 2.369235669e-11 -0.05721854201)
(0.6230294212 2.380292582e-11 -0.05717564632)
(0.6230317954 2.392247714e-11 -0.0571314202)
(0.6230343118 2.405164637e-11 -0.05708607963)
(0.6230369523 2.41908258e-11 -0.05703992373)
(0.6230396971 2.434033648e-11 -0.056993251)
(0.6230425199 2.450010898e-11 -0.0569464385)
(0.6230453937 2.46698819e-11 -0.05689985136)
(0.6230482865 2.484884026e-11 -0.05685391872)
(0.6230511672 2.503585092e-11 -0.05680903929)
(0.6230540018 2.522907483e-11 -0.05676565219)
(0.6230567593 2.542624991e-11 -0.05672414301)
(0.6230594085 2.56243043e-11 -0.05668490872)
(0.6230619235 2.581969308e-11 -0.05664827002)
(0.6230642803 2.600804923e-11 -0.05661453068)
(0.6230664622 2.618457121e-11 -0.05658390231)
(0.6230684561 2.634375369e-11 -0.05655655917)
(0.6230702568 2.64798069e-11 -0.05653258037)
(0.6230718631 2.658650811e-11 -0.05651200073)
(0.6230732807 2.665761251e-11 -0.05649477287)
(0.6230745186 2.668685756e-11 -0.05648081334)
(0.6230755905 2.666830271e-11 -0.05646998313)
(0.6230765116 2.659650432e-11 -0.05646212643)
(0.6230772991 2.646670568e-11 -0.05645706484)
(0.6230779694 2.627518557e-11 -0.05645462482)
(0.6230785387 2.601921967e-11 -0.05645463948)
(0.6230790209 2.569759829e-11 -0.05645696141)
(0.6230794281 2.531030141e-11 -0.05646146754)
(0.6230797697 2.485918272e-11 -0.05646805674)
(0.6230800534 2.434733849e-11 -0.05647665683)
(0.6230802845 2.377995438e-11 -0.0564872096)
(0.623080467 2.316337975e-11 -0.05649968226)
(0.6230806034 2.25061031e-11 -0.05651404412)
(0.6230806957 2.181753402e-11 -0.05653028537)
(0.6230807449 2.110898881e-11 -0.05654838827)
(0.623080752 2.039211745e-11 -0.05656835446)
(0.6230807174 1.967959939e-11 -0.05659017104)
)
;

boundaryField
{
    left
    {
        type            calculated;
        value           uniform (-0.6230103062 -2.941285065e-11 0.05769886098);
    }
    right
    {
        type            calculated;
        value           uniform (0.6230806414 1.217150035e-11 -0.05661384578);
    }
    beam
    {
        type            empty;
        value           nonuniform List<vector> 0();
    }
}


// ************************************************************************* //
