/*--------------------------------*- C++ -*----------------------------------*\
| =========                 |                                                 |
| \\      /  F ield         | OpenFOAM: The Open Source CFD Toolbox           |
|  \\    /   O peration     | Version:  2312                                  |
|   \\  /    A nd           | Website:  www.openfoam.com                      |
|    \\/     M anipulation  |                                                 |
\*---------------------------------------------------------------------------*/
FoamFile
{
    version     2.0;
    format      ascii;
    arch        "LSB;label=32;scalar=64";
    class       volVectorField;
    location    "0.23/beam";
    object      Theta;
}
// * * * * * * * * * * * * * * * * * * * * * * * * * * * * * * * * * * * * * //

dimensions      [0 0 0 0 0 0 0];

internalField   nonuniform List<vector> 
60
(
(-3.287121774e-13 0.09230538201 3.601598923e-11)
(-3.25093998e-13 0.09230484822 3.602394216e-11)
(-3.178711841e-13 0.0923001194 3.603908639e-11)
(-3.070730792e-13 0.09229338718 3.606133149e-11)
(-2.927452693e-13 0.09228334021 3.609054809e-11)
(-2.749513809e-13 0.09227076141 3.612657353e-11)
(-2.537754805e-13 0.09225517676 3.616922009e-11)
(-2.293251134e-13 0.09223685895 3.621828197e-11)
(-2.01734211e-13 0.09221562661 3.627354964e-11)
(-1.711668333e-13 0.09219156121 3.63348201e-11)
(-1.378206765e-13 0.09216457708 3.640191142e-11)
(-1.019299878e-13 0.09213467861 3.64746811e-11)
(-6.37685783e-14 0.09210180719 3.655304106e-11)
(-2.365184896e-14 0.09206593493 3.66369748e-11)
(1.806230968e-14 0.09202701212 3.672655561e-11)
(6.097386262e-14 0.09198500399 3.682196246e-11)
(1.046427685e-13 0.09193987558 3.692350148e-11)
(1.485912931e-13 0.09189160947 3.703159494e-11)
(1.92311164e-13 0.0918402053 3.714682269e-11)
(2.352687237e-13 0.09178569137 3.726989518e-11)
(2.769141583e-13 0.09172813 3.740165999e-11)
(3.166912326e-13 0.09166762713 3.754308598e-11)
(3.540459074e-13 0.09160434264 3.769522438e-11)
(3.884459031e-13 0.09153848322 3.785921404e-11)
(4.193812182e-13 0.09147032911 3.80361734e-11)
(4.463815905e-13 0.09140022377 3.822717809e-11)
(4.690287476e-13 0.09132857852 3.843316468e-11)
(4.869626453e-13 0.09125587089 3.865486373e-11)
(4.998931241e-13 0.0911826397 3.889265417e-11)
(5.076030076e-13 0.09110947675 3.914651712e-11)
(5.099615062e-13 0.09103701496 3.941589174e-11)
(5.069028858e-13 0.0909659133 3.969948056e-11)
(4.984576273e-13 0.09089683899 3.999527038e-11)
(4.847270225e-13 0.09083044763 4.030037921e-11)
(4.658859884e-13 0.09076736233 4.061091382e-11)
(4.421721956e-13 0.09070815307 4.09219907e-11)
(4.138805895e-13 0.09065331758 4.122766978e-11)
(3.813484685e-13 0.09060326514 4.152099463e-11)
(3.449473538e-13 0.09055830451 4.179404658e-11)
(3.050660463e-13 0.09051863745 4.203807426e-11)
(2.620999039e-13 0.09048435757 4.224366315e-11)
(2.164312656e-13 0.09045545622 4.240096711e-11)
(1.684136994e-13 0.09043183293 4.249998595e-11)
(1.183453269e-13 0.09041331321 4.253087319e-11)
(6.644179777e-14 0.0903996656 4.248428772e-11)
(1.279486498e-14 0.09039062744 4.235172195e-11)
(-4.267161444e-14 0.09038591898 4.212584404e-11)
(-1.002556059e-13 0.09038527423 4.18007964e-11)
(-1.605165135e-13 0.09038843658 4.137246053e-11)
(-2.242845875e-13 0.09039520217 4.083868648e-11)
(-2.925750653e-13 0.09040537046 4.019952379e-11)
(-3.663475534e-13 0.09041883678 3.945753284e-11)
(-4.459942483e-13 0.09043543556 3.861821705e-11)
(-5.305128661e-13 0.09045519197 3.76907614e-11)
(-6.164214145e-13 0.09047788546 3.668913532e-11)
(-6.968459254e-13 0.09050375889 3.563390691e-11)
(-7.615952586e-13 0.09053229884 3.455668982e-11)
(-7.987232713e-13 0.09056414807 3.351832924e-11)
(-8.043465063e-13 0.09059722435 3.268967748e-11)
(-1.066872335e-12 0.09062916727 3.26795379e-11)
)
;

boundaryField
{
    left
    {
        type            momentBeamRotationNR;
        value           uniform (-3.287121774e-13 0.09230538201 3.601598923e-11);
        momentSeries    
{
        file            "$FOAM_CASE/constant/beam/timeVsMoment";
        outOfBounds     clamp;
}
        moment          uniform (0 0 0);
    }
    right
    {
        type            momentBeamRotationNR;
        value           uniform (-1.066872335e-12 0.09062916727 3.26795379e-11);
        momentSeries    
{
        file            "$FOAM_CASE/constant/beam/timeVsMoment";
        outOfBounds     clamp;
}
        moment          uniform (0 0 0);
    }
    beam
    {
        type            empty;
    }
}


// ************************************************************************* //
