/*--------------------------------*- C++ -*----------------------------------*\
| =========                 |                                                 |
| \\      /  F ield         | OpenFOAM: The Open Source CFD Toolbox           |
|  \\    /   O peration     | Version:  2312                                  |
|   \\  /    A nd           | Website:  www.openfoam.com                      |
|    \\/     M anipulation  |                                                 |
\*---------------------------------------------------------------------------*/
FoamFile
{
    version     2.0;
    format      ascii;
    arch        "LSB;label=32;scalar=64";
    class       volVectorField;
    location    "0.23/beam";
    object      W;
}
// * * * * * * * * * * * * * * * * * * * * * * * * * * * * * * * * * * * * * //

dimensions      [0 1 0 0 0 0 0];

internalField   nonuniform List<vector> 
60
(
(-2.868764568e-06 8.040559061e-13 -0.002049924114)
(-8.600521085e-06 2.410319038e-12 -0.006149709819)
(-1.431496442e-05 4.017035401e-12 -0.01024930796)
(-2.000055861e-05 5.62450484e-12 -0.01434859353)
(-2.564576958e-05 7.23302389e-12 -0.01844744151)
(-3.123906249e-05 8.842884685e-12 -0.02254572684)
(-3.676889347e-05 1.045437417e-11 -0.02664332434)
(-4.222369775e-05 1.20677736e-11 -0.03074010854)
(-4.759187116e-05 1.368335848e-11 -0.03483595349)
(-5.286174979e-05 1.530139898e-11 -0.03893073251)
(-5.802158618e-05 1.692216088e-11 -0.04302431795)
(-6.3059524e-05 1.854590714e-11 -0.04711658089)
(-6.796357631e-05 2.017290011e-11 -0.05120739091)
(-7.272160658e-05 2.180340448e-11 -0.05529661582)
(-7.732132158e-05 2.343769077e-11 -0.05938412163)
(-8.175027418e-05 2.507603962e-11 -0.06346977253)
(-8.599588596e-05 2.671874671e-11 -0.06755343115)
(-9.004548933e-05 2.83661278e-11 -0.07163495895)
(-9.388639625e-05 3.001852442e-11 -0.07571421699)
(-9.750599443e-05 3.167630964e-11 -0.07979106698)
(-0.0001008918758 3.333989329e-11 -0.08386537259)
(-0.0001040319955 3.500972683e-11 -0.08793700124)
(-0.0001069146999 3.668621243e-11 -0.09200559639)
(-0.0001095296279 3.837008295e-11 -0.09607149928)
(-0.000111866855 4.006183758e-11 -0.1001343717)
(-0.000113918023 4.176211179e-11 -0.1041941205)
(-0.0001156761928 4.347158436e-11 -0.1082506674)
(-0.0001171363728 4.519095982e-11 -0.1123039557)
(-0.0001182955058 4.692096312e-11 -0.1163539494)
(-0.0001191529635 4.866231151e-11 -0.1204006393)
(-0.0001197104577 5.041570223e-11 -0.1244440415)
(-0.00011997244 5.218177145e-11 -0.1284842024)
(-0.0001199458938 5.396107168e-11 -0.1325211963)
(-0.0001196405833 5.575402403e-11 -0.1365551281)
(-0.0001190687016 5.75608874e-11 -0.1405861297)
(-0.0001182449374 5.938170167e-11 -0.1446143608)
(-0.0001171859847 6.121625498e-11 -0.1486400033)
(-0.0001159104348 6.306402658e-11 -0.1526632606)
(-0.0001144381923 6.492415673e-11 -0.1566843508)
(-0.0001127902432 6.679539818e-11 -0.1607035041)
(-0.0001109880571 6.867609679e-11 -0.1647209567)
(-0.0001090533156 7.056416212e-11 -0.1687369473)
(-0.0001070073982 7.245706651e-11 -0.1727517115)
(-0.0001048711622 7.435184471e-11 -0.1767654794)
(-0.0001026645937 7.624511692e-11 -0.1807784716)
(-0.0001004067066 7.813312443e-11 -0.1847908983)
(-9.81153966e-05 8.001177775e-11 -0.1888029571)
(-9.580747181e-05 8.187672988e-11 -0.192814834)
(-9.349868684e-05 8.372344603e-11 -0.1968267033)
(-9.120386331e-05 8.554731031e-11 -0.2008387288)
(-8.893703626e-05 8.734370886e-11 -0.204851066)
(-8.671158941e-05 8.910816199e-11 -0.2088638627)
(-8.454043642e-05 9.083641144e-11 -0.212877262)
(-8.243610915e-05 9.252456718e-11 -0.2168914022)
(-8.041091963e-05 9.416918926e-11 -0.2209064195)
(-7.847697041e-05 9.576743983e-11 -0.2249224475)
(-7.664624994e-05 9.731715975e-11 -0.2289396184)
(-7.493033805e-05 9.881707887e-11 -0.23295806)
(-7.33390495e-05 1.002672882e-10 -0.2369778804)
(-7.187149723e-05 1.016717989e-10 -0.2409990697)
)
;

boundaryField
{
    left
    {
        type            fixedValue;
        value           uniform (0 0 0);
    }
    right
    {
        type            fixedValue;
        value           uniform (-7.116734548e-05 1.023627614e-10 -0.2430102218);
    }
    beam
    {
        type            empty;
    }
}


// ************************************************************************* //
