/*--------------------------------*- C++ -*----------------------------------*\
| =========                 |                                                 |
| \\      /  F ield         | OpenFOAM: The Open Source CFD Toolbox           |
|  \\    /   O peration     | Version:  2312                                  |
|   \\  /    A nd           | Website:  www.openfoam.com                      |
|    \\/     M anipulation  |                                                 |
\*---------------------------------------------------------------------------*/
FoamFile
{
    version     2.0;
    format      ascii;
    arch        "LSB;label=32;scalar=64";
    class       volScalarField;
    location    "0.02";
    object      p;
}
// * * * * * * * * * * * * * * * * * * * * * * * * * * * * * * * * * * * * * //

dimensions      [1 -1 -2 0 0 0 0];

internalField   nonuniform List<scalar> 
299556
(
19.37475199
19.37475598
19.37475999
19.37476404
19.37476814
19.37477232
19.37477659
19.37478096
19.37478546
19.37479009
19.37479487
19.37479982
19.37480495
19.37481028
19.37481583
19.3748216
19.37482762
19.3748339
19.37484044
19.37484727
19.37485439
19.37486181
19.37486955
19.3748776
19.37488598
19.37489469
19.37490372
19.37491309
19.37492278
19.37493279
19.3749431
19.37495371
19.3749646
19.37497574
19.37498711
19.37499868
19.37501042
19.37502228
19.37503422
19.3750462
19.37505816
19.37507004
19.37508178
19.37509332
19.37510459
19.37511552
19.37512603
19.37513605
19.3751455
19.37515431
19.37516241
19.37516972
19.37517618
19.37518172
19.37518628
19.37518981
19.37519226
19.3751936
19.37519378
19.3751928
19.37519063
19.37518727
19.37518271
19.37517699
19.3751701
19.37516208
19.37515297
19.3751428
19.37513162
19.37511948
19.37510644
19.37509255
19.37507787
19.37506246
19.37504639
19.3750297
19.37501247
19.37499474
19.37497657
19.37495802
19.37493912
19.37491993
19.37490048
19.37488082
19.37486098
19.37484099
19.37482089
19.3748007
19.37478044
19.37476015
19.37475595
19.37476788
19.37477989
19.37479201
19.3748043
19.37481681
19.37482959
19.37484267
19.37485612
19.37486997
19.37488428
19.3748991
19.37491446
19.37493042
19.37494702
19.3749643
19.37498231
19.37500109
19.37502068
19.37504111
19.37506242
19.37508463
19.37510778
19.37513189
19.37515697
19.37518303
19.37521007
19.37523811
19.37526711
19.37529706
19.37532794
19.37535969
19.37539228
19.37542563
19.37545966
19.3754943
19.37552943
19.37556493
19.37560069
19.37563654
19.37567234
19.37570791
19.37574306
19.37577761
19.37581134
19.37584405
19.37587551
19.37590551
19.37593381
19.37596019
19.37598443
19.37600632
19.37602566
19.37604224
19.3760559
19.37606647
19.37607382
19.37607782
19.37607838
19.37607543
19.37606894
19.37605887
19.37604525
19.3760281
19.37600748
19.37598348
19.37595619
19.37592575
19.37589228
19.37585595
19.3758169
19.37577532
19.37573138
19.37568526
19.37563715
19.37558721
19.37553562
19.37548256
19.37542817
19.37537263
19.37531607
19.37525862
19.37520041
19.37514156
19.37508218
19.37502235
19.37496218
19.37490174
19.37484112
19.37478039
19.37475988
19.37477968
19.3747996
19.37481973
19.37484013
19.37486089
19.37488209
19.37490381
19.37492613
19.37494912
19.37497287
19.37499746
19.37502296
19.37504945
19.375077
19.37510568
19.37513558
19.37516675
19.37519926
19.37523317
19.37526854
19.37530541
19.37534384
19.37538385
19.37542548
19.37546874
19.37551363
19.37556016
19.37560831
19.37565803
19.37570928
19.375762
19.37581609
19.37587146
19.37592796
19.37598546
19.37604378
19.37610273
19.37616209
19.37622162
19.37628106
19.37634011
19.37639848
19.37645585
19.37651186
19.37656617
19.37661842
19.37666823
19.37671523
19.37675904
19.3767993
19.37683566
19.37686777
19.37689532
19.37691801
19.37693557
19.37694777
19.37695442
19.37695536
19.37695047
19.37693969
19.37692298
19.37690036
19.37687188
19.37683765
19.3767978
19.37675249
19.37670194
19.37664638
19.37658604
19.37652121
19.37645217
19.37637922
19.37630265
19.37622276
19.37613984
19.3760542
19.3759661
19.37587582
19.3757836
19.3756897
19.37559433
19.3754977
19.37540001
19.37530142
19.37520211
19.37510222
19.37500189
19.37490126
19.37480044
19.37476374
19.3747913
19.37481902
19.37484701
19.3748754
19.37490429
19.37493378
19.374964
19.37499506
19.37502705
19.3750601
19.37509431
19.37512978
19.37516664
19.37520497
19.37524489
19.37528648
19.37532985
19.37537509
19.37542228
19.37547149
19.3755228
19.37557627
19.37563195
19.37568988
19.37575007
19.37581255
19.37587731
19.3759443
19.3760135
19.37608483
19.3761582
19.37623349
19.37631054
19.37638919
19.37646922
19.3765504
19.37663246
19.37671509
19.37679795
19.37688069
19.37696291
19.37704417
19.37712403
19.37720202
19.37727765
19.37735039
19.37741975
19.37748519
19.3775462
19.37760228
19.37765291
19.37769764
19.377736
19.37776761
19.37779207
19.37780908
19.37781835
19.37781966
19.37781287
19.37779786
19.37777461
19.37774312
19.37770347
19.37765582
19.37760034
19.37753727
19.37746689
19.37738953
19.37730553
19.37721528
19.37711917
19.37701761
19.37691101
19.3767998
19.37668439
19.37656517
19.37644254
19.37631687
19.37618852
19.37605782
19.37592509
19.3757906
19.37565463
19.37551742
19.3753792
19.37524018
19.37510056
19.3749605
19.3748202
19.37476753
19.37480266
19.37483801
19.37487371
19.3749099
19.37494674
19.37498435
19.37502288
19.37506248
19.37510327
19.37514541
19.37518904
19.37523428
19.37528127
19.37533016
19.37538106
19.3754341
19.37548941
19.3755471
19.37560727
19.37567003
19.37573547
19.37580366
19.37587467
19.37594855
19.37602533
19.37610501
19.3761876
19.37627306
19.37636132
19.37645231
19.3765459
19.37664193
19.37674023
19.37684056
19.37694266
19.37704623
19.37715092
19.37725635
19.37736209
19.37746767
19.37757258
19.37767628
19.3777782
19.37787774
19.37797425
19.3780671
19.37815563
19.37823917
19.37831706
19.37838864
19.37845328
19.37851039
19.37855938
19.37859974
19.37863098
19.37865271
19.37866456
19.37866626
19.37865761
19.37863847
19.3786088
19.37856862
19.37851804
19.37845722
19.37838642
19.37830593
19.37821613
19.3781174
19.37801021
19.37789505
19.3777724
19.37764281
19.37750679
19.37736489
19.37721763
19.37706552
19.37690907
19.37674874
19.376585
19.37641826
19.37624893
19.37607737
19.37590392
19.37572889
19.37555258
19.37537525
19.37519715
19.37501851
19.37483954
19.3747712
19.3748137
19.37485645
19.37489964
19.37494342
19.37498797
19.37503347
19.37508008
19.37512798
19.37517733
19.3752283
19.37528107
19.3753358
19.37539265
19.37545178
19.37551336
19.37557752
19.37564443
19.37571422
19.37578702
19.37586295
19.37594212
19.37602462
19.37611053
19.37619991
19.37629281
19.37638922
19.37648916
19.37659256
19.37669937
19.37680947
19.37692273
19.37703895
19.37715791
19.37727934
19.37740292
19.37752828
19.37765501
19.37778263
19.37791063
19.37803845
19.37816546
19.37829102
19.37841443
19.37853496
19.37865184
19.37876428
19.3788715
19.37897268
19.37906702
19.37915373
19.37923204
19.37930122
19.37936058
19.37940948
19.37944736
19.37947369
19.37948808
19.37949016
19.37947971
19.37945656
19.37942064
19.37937201
19.37931077
19.37923714
19.37915142
19.37905397
19.37894523
19.3788257
19.37869592
19.37855649
19.378408
19.37825111
19.37808645
19.37791467
19.37773641
19.37755229
19.37736291
19.37716885
19.37697066
19.37676886
19.37656392
19.37635629
19.37614638
19.37593457
19.37572121
19.37550662
19.37529109
19.37507492
19.37485836
19.37477474
19.37482434
19.37487424
19.37492464
19.37497575
19.37502775
19.37508085
19.37513525
19.37519115
19.37524876
19.37530825
19.37536984
19.37543372
19.37550007
19.3755691
19.37564097
19.37571587
19.37579397
19.37587544
19.37596042
19.37604905
19.37614147
19.37623778
19.37633808
19.37644243
19.37655088
19.37666345
19.37678013
19.37690086
19.37702558
19.37715414
19.37728639
19.37742211
19.37756104
19.37770286
19.3778472
19.37799362
19.37814164
19.37829072
19.37844025
19.37858958
19.37873797
19.37888468
19.37902888
19.37916972
19.37930631
19.37943772
19.37956304
19.3796813
19.37979158
19.37989295
19.3799845
19.38006539
19.38013481
19.380192
19.3802363
19.38026712
19.38028397
19.38028644
19.38027426
19.38024723
19.38020529
19.38014848
19.38007693
19.37999091
19.37989075
19.37977689
19.37964983
19.37951017
19.37935855
19.37919564
19.37902216
19.37883887
19.37864651
19.37844583
19.3782376
19.37802253
19.37780132
19.37757467
19.37734319
19.3771075
19.37686816
19.37662569
19.37638056
19.37613322
19.37588407
19.37563349
19.37538182
19.3751294
19.37487652
19.37477813
19.37483453
19.37489127
19.37494858
19.37500668
19.37506581
19.37512619
19.37518805
19.37525162
19.37531712
19.37538477
19.3754548
19.37552744
19.3756029
19.37568138
19.37576312
19.37584829
19.37593711
19.37602975
19.37612639
19.3762272
19.3763323
19.37644184
19.37655591
19.3766746
19.37679796
19.376926
19.37705872
19.37719606
19.37733794
19.3774842
19.37763466
19.37778908
19.37794715
19.37810852
19.37827276
19.37843939
19.37860785
19.37877752
19.37894771
19.37911768
19.37928661
19.37945362
19.37961779
19.37977814
19.37993367
19.38008332
19.38022602
19.38036072
19.38048632
19.38060179
19.38070609
19.38079825
19.38087734
19.38094252
19.38099301
19.38102816
19.38104739
19.38105025
19.38103642
19.38100568
19.38095796
19.3808933
19.38081186
19.38071394
19.38059991
19.38047029
19.38032565
19.38016666
19.37999405
19.3798086
19.37961113
19.37940249
19.37918354
19.37895514
19.37871814
19.37847337
19.37822164
19.37796371
19.37770031
19.37743213
19.3771598
19.37688391
19.37660502
19.37632361
19.37604016
19.37575508
19.37546877
19.37518161
19.37489394
19.37478135
19.3748442
19.37490743
19.37497129
19.37503604
19.37510194
19.37516922
19.37523816
19.375309
19.37538199
19.37545738
19.37553543
19.37561638
19.37570047
19.37578795
19.37587904
19.37597397
19.37607296
19.37617621
19.37628393
19.37639629
19.37651344
19.37663554
19.3767627
19.376895
19.37703251
19.37717526
19.37732322
19.37747634
19.37763452
19.3777976
19.37796538
19.37813757
19.37831384
19.37849381
19.37867698
19.37886283
19.37905073
19.37924
19.37942986
19.37961949
19.37980797
19.37999432
19.38017751
19.38035647
19.38053004
19.38069707
19.38085636
19.38100672
19.38114694
19.38127586
19.38139233
19.38149524
19.38158358
19.38165638
19.3817128
19.38175209
19.38177361
19.38177686
19.38176147
19.38172721
19.38167399
19.38160186
19.381511
19.38140174
19.38127452
19.38112988
19.38096849
19.38079109
19.3805985
19.38039159
19.38017127
19.3799385
19.37969424
19.37943944
19.37917507
19.37890204
19.37862126
19.37833358
19.37803981
19.37774072
19.37743702
19.37712936
19.37681836
19.37650458
19.37618851
19.37587065
19.37555142
19.37523123
19.37491048
19.37478437
19.37485329
19.37492262
19.37499264
19.37506364
19.37513589
19.37520967
19.37528526
19.37536294
19.37544297
19.37552565
19.37561123
19.37569999
19.37579221
19.37588813
19.37598802
19.37609212
19.37620068
19.37631392
19.37643205
19.37655527
19.37668376
19.37681767
19.37695714
19.37710226
19.37725309
19.37740967
19.37757198
19.37773996
19.37791349
19.37809241
19.37827649
19.37846542
19.37865884
19.37885633
19.37905735
19.37926131
19.37946754
19.37967529
19.3798837
19.38009187
19.38029879
19.38050339
19.38070454
19.38090105
19.38109167
19.38127511
19.38145007
19.38161524
19.38176928
19.38191092
19.38203888
19.38215198
19.38224906
19.38232909
19.38239112
19.38243434
19.38245804
19.38246167
19.38244483
19.38240725
19.38234885
19.38226968
19.38216994
19.38204998
19.3819103
19.38175149
19.3815743
19.38137952
19.38116807
19.3809409
19.38069903
19.3804435
19.38017536
19.37989568
19.37960549
19.37930582
19.37899766
19.37868194
19.37835955
19.37803134
19.37769809
19.37736051
19.37701927
19.37667498
19.37632821
19.37597946
19.37562923
19.37527796
19.37492606
19.37478719
19.37486174
19.37493674
19.3750125
19.37508931
19.37516747
19.37524729
19.37532907
19.3754131
19.37549969
19.37558913
19.37568173
19.37577776
19.37587753
19.37598131
19.37608939
19.37620202
19.37631948
19.37644201
19.37656983
19.37670316
19.3768422
19.37698712
19.37713804
19.37729509
19.37745833
19.37762779
19.37780346
19.37798527
19.37817311
19.37836678
19.37856604
19.37877058
19.37897999
19.3791938
19.37941146
19.37963232
19.37985565
19.38008063
19.38030635
19.38053182
19.38075596
19.3809776
19.38119553
19.38140844
19.38161498
19.38181376
19.38200337
19.38218238
19.38234935
19.38250288
19.38264161
19.38276423
19.3828695
19.3829563
19.3830236
19.3830705
19.38309626
19.38310026
19.38308207
19.38304141
19.38297818
19.38289243
19.3827844
19.38265446
19.38250314
19.38233111
19.38213915
19.38192816
19.3816991
19.38145302
19.38119103
19.38091425
19.38062383
19.38032092
19.38000666
19.37968213
19.37934843
19.37900656
19.3786575
19.37830214
19.37794133
19.37757586
19.37720644
19.37683373
19.37645835
19.37608084
19.37570172
19.37532148
19.37494058
19.37478977
19.3748695
19.37494972
19.37503074
19.37511288
19.37519648
19.37528185
19.37536931
19.37545918
19.37555179
19.37564745
19.37574649
19.3758492
19.37595591
19.37606691
19.37618251
19.37630299
19.37642863
19.37655969
19.37669642
19.37683905
19.37698779
19.37714281
19.37730427
19.37747228
19.37764693
19.37782824
19.3780162
19.37821074
19.37841173
19.37861898
19.37883222
19.37905111
19.37927524
19.37950409
19.37973707
19.37997349
19.38021257
19.38045343
19.38069511
19.38093653
19.38117654
19.38141391
19.3816473
19.38187534
19.38209658
19.38230952
19.38251266
19.38270444
19.38288336
19.38304788
19.38319656
19.38332798
19.38344084
19.3835339
19.38360607
19.38365639
19.38368405
19.38368841
19.38366899
19.3836255
19.38355782
19.38346602
19.38335034
19.38321119
19.38304914
19.38286492
19.38265934
19.38243339
19.38218809
19.38192459
19.38164404
19.38134768
19.38103672
19.38071241
19.38037595
19.38002853
19.3796713
19.37930535
19.37893171
19.37855135
19.37816518
19.37777404
19.37737868
19.37697981
19.3765781
19.37617411
19.37576842
19.37536153
19.37495393
19.37479211
19.37487653
19.37496146
19.37504725
19.37513422
19.37522274
19.37531313
19.37540573
19.37550089
19.37559895
19.37570024
19.37580511
19.37591387
19.37602686
19.3761444
19.37626681
19.37639439
19.37652744
19.37666623
19.37681103
19.37696208
19.3771196
19.37728378
19.37745478
19.37763273
19.37781771
19.37800976
19.37820886
19.37841494
19.37862786
19.37884741
19.37907333
19.37930525
19.37954272
19.37978521
19.38003209
19.38028264
19.38053602
19.3807913
19.38104747
19.38130338
19.38155781
19.38180945
19.38205691
19.3822987
19.3825333
19.38275912
19.38297456
19.38317798
19.38336776
19.38354229
19.38370003
19.38383948
19.38395923
19.384058
19.38413462
19.38418806
19.38421748
19.38422217
19.38420164
19.38415558
19.38408387
19.38398657
19.38386394
19.38371643
19.38354464
19.38334932
19.38313138
19.38289183
19.38263178
19.38235244
19.38205504
19.38174089
19.38141128
19.38106753
19.38071092
19.38034272
19.37996413
19.37957633
19.37918039
19.37877735
19.37836817
19.37795373
19.37753485
19.37711227
19.37668667
19.37625868
19.37582889
19.37539784
19.37496604
19.37479419
19.37488278
19.3749719
19.37506192
19.3751532
19.37524608
19.37534093
19.37543811
19.37553798
19.37564088
19.37574718
19.37585722
19.37597136
19.37608994
19.3762133
19.37634177
19.37647566
19.3766153
19.37676096
19.37691294
19.37707147
19.37723681
19.37740914
19.37758863
19.37777543
19.37796961
19.37817121
19.37838022
19.37859657
19.37882011
19.37905063
19.37928784
19.37953135
19.37978072
19.38003536
19.38029463
19.38055776
19.38082389
19.38109203
19.38136111
19.38162995
19.38189725
19.38216163
19.38242163
19.3826757
19.38292223
19.38315956
19.38338599
19.3835998
19.38379929
19.38398277
19.3841486
19.38429522
19.38442115
19.38452503
19.38460563
19.38466188
19.38469286
19.38469787
19.38467636
19.38462802
19.3845527
19.3844505
19.38432168
19.38416671
19.38398622
19.38378101
19.38355203
19.38330035
19.38302714
19.38273366
19.38242124
19.38209121
19.38174497
19.38138389
19.38100932
19.38062258
19.38022496
19.37981768
19.37940187
19.37897862
19.37854895
19.37811376
19.37767392
19.37723021
19.37678335
19.37633399
19.37588274
19.37543017
19.37497682
19.374796
19.37488821
19.37498098
19.37507468
19.37516968
19.37526636
19.3753651
19.37546625
19.3755702
19.37567732
19.37578797
19.37590252
19.37602133
19.37614477
19.37627318
19.37640691
19.3765463
19.37669166
19.3768433
19.37700151
19.37716656
19.37733869
19.3775181
19.37770498
19.37789947
19.37810165
19.37831156
19.3785292
19.37875448
19.37898726
19.37922732
19.37947435
19.37972797
19.37998768
19.38025291
19.38052297
19.38079707
19.3810743
19.38135364
19.38163398
19.38191408
19.38219259
19.38246809
19.38273903
19.38300381
19.38326075
19.38350811
19.38374413
19.38396701
19.38417498
19.38436627
19.38453918
19.38469207
19.3848234
19.38493175
19.38501583
19.38507453
19.3851069
19.38511218
19.38508983
19.3850395
19.38496105
19.38485458
19.38472036
19.38455888
19.38437081
19.38415697
19.38391837
19.38365611
19.38337143
19.38306563
19.3827401
19.38239624
19.3820355
19.38165931
19.38126909
19.38086621
19.38045201
19.38002776
19.37959465
19.37915381
19.37870628
19.37825303
19.37779495
19.37733285
19.37686748
19.37639952
19.37592959
19.3754583
19.37498621
19.37479752
19.37489278
19.37498862
19.37508543
19.37518358
19.37528346
19.37538547
19.37548997
19.37559737
19.37570803
19.37582235
19.3759407
19.37606345
19.37619099
19.37632366
19.37646183
19.37660584
19.37675603
19.37691272
19.37707619
19.37724673
19.37742459
19.37760998
19.37780309
19.37800407
19.37821299
19.37842992
19.37865484
19.37888766
19.37912824
19.37937635
19.37963168
19.37989382
19.38016228
19.38043645
19.38071562
19.38099898
19.38128558
19.3815744
19.38186425
19.38215387
19.38244186
19.38272675
19.38300695
19.38328079
19.38354653
19.38380239
19.38404652
19.38427708
19.38449223
19.38469013
19.38486904
19.38502724
19.38516314
19.38527527
19.38536231
19.38542309
19.38545664
19.38546216
19.3854391
19.38538709
19.385306
19.38519592
19.38505714
19.38489016
19.38469567
19.38447454
19.3842278
19.3839566
19.38366221
19.383346
19.38300938
19.38265384
19.38228084
19.38189189
19.38148844
19.38107193
19.38064372
19.38020513
19.3797574
19.3793017
19.3788391
19.3783706
19.37789712
19.3774195
19.3769385
19.37645483
19.37596915
19.37548205
19.37499412
19.37479875
19.37489648
19.3749948
19.37509411
19.3751948
19.37529727
19.37540192
19.37550913
19.37561931
19.37573284
19.37585012
19.37597153
19.37609747
19.37622831
19.37636443
19.37650618
19.37665394
19.37680803
19.37696878
19.37713651
19.37731149
19.37749397
19.3776842
19.37788234
19.37808856
19.37830294
19.37852554
19.37875634
19.37899526
19.37924214
19.37949676
19.3797588
19.38002783
19.38030336
19.38058475
19.3808713
19.38116215
19.38145634
19.38175282
19.38205037
19.38234769
19.38264337
19.38293586
19.38322355
19.38350473
19.3837776
19.38404034
19.38429105
19.38452783
19.38474879
19.38495206
19.38513582
19.38529833
19.38543794
19.38555315
19.38564259
19.38570506
19.38573956
19.38574528
19.38572165
19.38566829
19.38558506
19.38547206
19.38532958
19.38515814
19.38495846
19.38473143
19.3844781
19.38419966
19.38389741
19.38357277
19.38322719
19.38286218
19.38247927
19.38207998
19.38166583
19.38123828
19.38079874
19.38034855
19.379889
19.37942128
19.37894649
19.37846566
19.37797972
19.37748955
19.37699591
19.37649955
19.37600112
19.37550125
19.37500053
19.37479968
19.37489927
19.37499947
19.37510067
19.37520328
19.37530771
19.37541435
19.3755236
19.37563588
19.37575158
19.3758711
19.37599483
19.37612317
19.37625651
19.37639523
19.3765397
19.37669027
19.37684731
19.37701115
19.37718208
19.37736041
19.3775464
19.37774027
19.37794222
19.3781524
19.37837091
19.37859779
19.37883304
19.37907657
19.37932822
19.37958776
19.37985487
19.38012912
19.38040999
19.38069685
19.38098897
19.38128549
19.38158543
19.3818877
19.38219108
19.38249424
19.38279572
19.38309397
19.38338734
19.38367407
19.38395235
19.38422029
19.38447598
19.38471748
19.38494285
19.38515018
19.38533762
19.38550339
19.38564582
19.38576336
19.38585462
19.38591837
19.3859536
19.38595948
19.38593541
19.38588103
19.38579618
19.38568097
19.38553569
19.38536089
19.38515728
19.38492577
19.38466745
19.38438353
19.38407534
19.38374431
19.38339194
19.38301977
19.38262935
19.38222225
19.3818
19.38136409
19.38091597
19.38045702
19.37998853
19.37951171
19.3790277
19.37853754
19.37804219
19.37754251
19.37703933
19.37653336
19.3760253
19.37551577
19.37500537
19.3748003
19.37490114
19.37500259
19.37510506
19.37520896
19.3753147
19.37542267
19.3755333
19.37564699
19.37576414
19.37588516
19.37601044
19.3761404
19.37627541
19.37641587
19.37656215
19.37671463
19.37687364
19.37703954
19.37721263
19.37739321
19.37758154
19.37777786
19.37798236
19.37819519
19.37841647
19.37864622
19.37888445
19.37913107
19.37938592
19.37964876
19.37991927
19.38019701
19.38048147
19.380772
19.38106786
19.38136819
19.38167198
19.38197814
19.38228543
19.3825925
19.38289788
19.3832
19.38349717
19.38378763
19.38406953
19.38434098
19.38460001
19.38484467
19.385073
19.38528307
19.38547298
19.38564094
19.38578526
19.38590437
19.38599685
19.38606146
19.38609718
19.38610317
19.38607881
19.38602374
19.38593781
19.38582111
19.38567396
19.38549689
19.38529064
19.38505614
19.38479447
19.38450687
19.38419469
19.38385937
19.38350245
19.38312547
19.38273001
19.38231767
19.38188998
19.38144847
19.3809946
19.38052976
19.38005527
19.37957236
19.37908216
19.37858574
19.37808407
19.37757804
19.37706844
19.37655604
19.37604151
19.3755255
19.37500861
19.37480061
19.37490208
19.37500416
19.37510727
19.37521181
19.3753182
19.37542685
19.37553817
19.37565256
19.37577044
19.37589221
19.37601827
19.37614904
19.37628489
19.37642623
19.37657342
19.37672684
19.37688685
19.37705378
19.37722795
19.37740965
19.37759916
19.37779671
19.37800249
19.37821666
19.37843932
19.37867052
19.37891024
19.37915841
19.37941486
19.37967936
19.37995157
19.38023107
19.38051733
19.38080971
19.38110744
19.38140967
19.3817154
19.38202351
19.38233276
19.3826418
19.38294914
19.38325319
19.38355228
19.38384461
19.38412834
19.38440153
19.38466225
19.3849085
19.38513832
19.38534975
19.38554091
19.38570997
19.38585524
19.38597513
19.38606822
19.38613328
19.38616924
19.38617528
19.38615078
19.38609537
19.38600889
19.38589145
19.38574335
19.38556515
19.38535758
19.38512157
19.38485821
19.38456876
19.38425458
19.38391712
19.3835579
19.38317851
19.38278053
19.38236555
19.38193514
19.38149082
19.38103406
19.38056627
19.38008876
19.37960279
19.37910949
19.37860993
19.37810509
19.37759586
19.37708305
19.37656742
19.37604965
19.37553038
19.37501024
19.37480061
19.37490208
19.37500416
19.37510727
19.37521181
19.3753182
19.37542685
19.37553817
19.37565256
19.37577044
19.37589221
19.37601827
19.37614904
19.37628489
19.37642623
19.37657342
19.37672684
19.37688685
19.37705378
19.37722795
19.37740965
19.37759916
19.37779671
19.37800249
19.37821666
19.37843932
19.37867052
19.37891024
19.37915841
19.37941486
19.37967936
19.37995157
19.38023107
19.38051733
19.3808097
19.38110744
19.38140967
19.3817154
19.38202351
19.38233276
19.3826418
19.38294914
19.38325319
19.38355228
19.38384461
19.38412833
19.38440153
19.38466225
19.3849085
19.38513832
19.38534975
19.38554091
19.38570997
19.38585524
19.38597513
19.38606822
19.38613327
19.38616924
19.38617528
19.38615078
19.38609536
19.38600889
19.38589145
19.38574335
19.38556515
19.38535757
19.38512156
19.38485821
19.38456876
19.38425458
19.38391712
19.3835579
19.38317851
19.38278053
19.38236555
19.38193513
19.38149081
19.38103406
19.38056626
19.38008876
19.37960278
19.37910949
19.37860993
19.37810509
19.37759586
19.37708305
19.37656742
19.37604965
19.37553038
19.37501024
19.3748003
19.37490114
19.37500259
19.37510506
19.37520896
19.3753147
19.37542267
19.3755333
19.37564699
19.37576414
19.37588516
19.37601044
19.3761404
19.37627541
19.37641587
19.37656215
19.37671463
19.37687364
19.37703954
19.37721263
19.37739321
19.37758154
19.37777786
19.37798236
19.37819519
19.37841647
19.37864622
19.37888445
19.37913107
19.37938592
19.37964876
19.37991927
19.38019701
19.38048147
19.380772
19.38106786
19.38136818
19.38167198
19.38197814
19.38228542
19.38259249
19.38289788
19.38319999
19.38349717
19.38378763
19.38406953
19.38434097
19.38460001
19.38484467
19.385073
19.38528306
19.38547298
19.38564094
19.38578526
19.38590436
19.38599684
19.38606146
19.38609717
19.38610316
19.38607881
19.38602374
19.38593781
19.38582111
19.38567396
19.38549689
19.38529064
19.38505613
19.38479446
19.38450686
19.38419468
19.38385937
19.38350244
19.38312546
19.38273001
19.38231766
19.38188998
19.38144847
19.3809946
19.38052976
19.38005527
19.37957235
19.37908216
19.37858574
19.37808407
19.37757803
19.37706844
19.37655604
19.37604151
19.3755255
19.37500861
19.37479968
19.37489927
19.37499947
19.37510067
19.37520328
19.37530771
19.37541435
19.3755236
19.37563588
19.37575158
19.3758711
19.37599483
19.37612317
19.37625651
19.37639523
19.3765397
19.37669028
19.37684731
19.37701115
19.37718208
19.37736041
19.3775464
19.37774027
19.37794222
19.3781524
19.37837091
19.37859779
19.37883304
19.37907657
19.37932822
19.37958776
19.37985487
19.38012912
19.38040999
19.38069685
19.38098897
19.38128549
19.38158543
19.3818877
19.38219108
19.38249423
19.38279572
19.38309397
19.38338733
19.38367406
19.38395234
19.38422028
19.38447597
19.38471747
19.38494284
19.38515017
19.38533761
19.38550339
19.38564581
19.38576335
19.38585461
19.38591836
19.38595359
19.38595947
19.3859354
19.38588102
19.38579617
19.38568096
19.38553568
19.38536088
19.38515727
19.38492576
19.38466744
19.38438352
19.38407533
19.3837443
19.38339193
19.38301976
19.38262934
19.38222224
19.38179999
19.38136408
19.38091597
19.38045701
19.37998852
19.3795117
19.37902769
19.37853753
19.37804218
19.37754251
19.37703933
19.37653336
19.3760253
19.37551577
19.37500537
19.37479875
19.37489648
19.3749948
19.37509411
19.3751948
19.37529727
19.37540192
19.37550913
19.37561931
19.37573284
19.37585012
19.37597153
19.37609747
19.37622831
19.37636443
19.37650619
19.37665394
19.37680803
19.37696878
19.37713651
19.37731149
19.37749397
19.3776842
19.37788234
19.37808856
19.37830294
19.37852554
19.37875634
19.37899526
19.37924214
19.37949676
19.37975879
19.38002783
19.38030335
19.38058475
19.38087129
19.38116214
19.38145634
19.38175281
19.38205036
19.38234769
19.38264336
19.38293585
19.38322354
19.38350472
19.38377759
19.38404033
19.38429104
19.38452782
19.38474878
19.38495205
19.38513581
19.38529832
19.38543793
19.38555314
19.38564257
19.38570504
19.38573954
19.38574527
19.38572163
19.38566827
19.38558505
19.38547204
19.38532956
19.38515813
19.38495845
19.38473141
19.38447808
19.38419964
19.3838974
19.38357275
19.38322717
19.38286216
19.38247925
19.38207997
19.38166582
19.38123826
19.38079872
19.38034854
19.37988899
19.37942127
19.37894648
19.37846565
19.37797972
19.37748954
19.37699591
19.37649955
19.37600112
19.37550125
19.37500053
19.37479752
19.37489278
19.37498862
19.37508543
19.37518358
19.37528346
19.37538547
19.37548997
19.37559737
19.37570803
19.37582235
19.3759407
19.37606345
19.37619099
19.37632366
19.37646183
19.37660584
19.37675603
19.37691272
19.37707619
19.37724673
19.37742459
19.37760998
19.37780309
19.37800407
19.378213
19.37842992
19.37865484
19.37888766
19.37912824
19.37937635
19.37963168
19.37989382
19.38016228
19.38043644
19.38071561
19.38099897
19.38128558
19.38157439
19.38186424
19.38215386
19.38244186
19.38272674
19.38300694
19.38328078
19.38354652
19.38380238
19.38404651
19.38427707
19.38449221
19.38469012
19.38486902
19.38502722
19.38516312
19.38527526
19.3853623
19.38542308
19.38545662
19.38546215
19.38543908
19.38538707
19.38530599
19.3851959
19.38505712
19.38489014
19.38469565
19.38447452
19.38422778
19.38395658
19.38366219
19.38334598
19.38300936
19.38265382
19.38228083
19.38189187
19.38148843
19.38107191
19.3806437
19.38020512
19.37975739
19.37930169
19.37883909
19.37837059
19.37789711
19.37741949
19.37693849
19.37645483
19.37596914
19.37548205
19.37499412
19.374796
19.37488821
19.37498098
19.37507468
19.37516968
19.37526636
19.3753651
19.37546625
19.3755702
19.37567732
19.37578797
19.37590252
19.37602133
19.37614477
19.37627318
19.37640691
19.3765463
19.37669166
19.3768433
19.37700151
19.37716656
19.37733869
19.3775181
19.37770499
19.37789947
19.37810165
19.37831156
19.3785292
19.37875448
19.37898726
19.37922732
19.37947435
19.37972797
19.37998768
19.38025291
19.38052297
19.38079706
19.38107429
19.38135364
19.38163397
19.38191407
19.38219258
19.38246808
19.38273902
19.3830038
19.38326074
19.3835081
19.38374412
19.383967
19.38417496
19.38436626
19.38453916
19.38469205
19.38482338
19.38493173
19.38501581
19.38507451
19.38510688
19.38511216
19.38508981
19.38503948
19.38496103
19.38485456
19.38472034
19.38455886
19.38437078
19.38415695
19.38391834
19.38365609
19.3833714
19.38306561
19.38274007
19.38239622
19.38203548
19.38165929
19.38126907
19.3808662
19.380452
19.38002774
19.37959463
19.37915379
19.37870627
19.37825302
19.37779494
19.37733284
19.37686747
19.37639951
19.37592959
19.3754583
19.3749862
19.37479419
19.37488278
19.3749719
19.37506192
19.3751532
19.37524608
19.37534093
19.37543811
19.37553798
19.37564088
19.37574718
19.37585723
19.37597137
19.37608995
19.3762133
19.37634177
19.37647567
19.3766153
19.37676097
19.37691294
19.37707148
19.37723681
19.37740914
19.37758864
19.37777543
19.37796961
19.37817121
19.37838022
19.37859657
19.37882011
19.37905063
19.37928783
19.37953135
19.37978071
19.38003536
19.38029463
19.38055776
19.38082388
19.38109203
19.38136111
19.38162994
19.38189724
19.38216162
19.38242162
19.38267569
19.38292222
19.38315954
19.38338597
19.38359978
19.38379927
19.38398275
19.38414858
19.3842952
19.38442113
19.38452501
19.38460561
19.38466186
19.38469284
19.38469785
19.38467634
19.38462799
19.38455268
19.38445048
19.38432166
19.38416669
19.38398619
19.38378099
19.38355201
19.38330033
19.38302712
19.38273364
19.38242121
19.38209119
19.38174495
19.38138386
19.38100929
19.38062256
19.38022494
19.37981766
19.37940185
19.37897861
19.37854893
19.37811375
19.37767391
19.3772302
19.37678334
19.37633398
19.37588273
19.37543017
19.37497682
19.37479211
19.37487653
19.37496146
19.37504725
19.37513422
19.37522274
19.37531313
19.37540573
19.37550089
19.37559895
19.37570025
19.37580511
19.37591387
19.37602686
19.37614441
19.37626682
19.3763944
19.37652744