/*--------------------------------*- C++ -*----------------------------------*\
| =========                 |                                                 |
| \\      /  F ield         | foam-extend: Open Source CFD                    |
|  \\    /   O peration     | Version:     4.1                                |
|   \\  /    A nd           | Web:         http://www.foam-extend.org         |
|    \\/     M anipulation  |                                                 |
\*---------------------------------------------------------------------------*/
FoamFile
{
    version     2.0;
    format      ascii;
    class       surfaceVectorField;
    location    "0";
    object      refTangent;
}
// * * * * * * * * * * * * * * * * * * * * * * * * * * * * * * * * * * * * * //

dimensions      [0 0 0 0 0 0 0];

internalField   nonuniform List<vector> 
999
(
(0.999577 -0.0290739 0.000436477)
(0.998309 -0.0581232 0.000872954)
(0.996197 -0.0871233 0.00130943)
(0.993231 -0.116143 0.00174732)
(0.98943 -0.144995 0.00218415)
(0.984791 -0.173723 0.00262097)
(0.979318 -0.202304 0.0030578)
(0.973015 -0.230713 0.00349462)
(0.965889 -0.258927 0.00393144)
(0.957944 -0.286922 0.00436825)
(0.949188 -0.314673 0.00480506)
(0.939628 -0.342158 0.00524187)
(0.929272 -0.369352 0.00567868)
(0.918129 -0.396234 0.00611548)
(0.906209 -0.42278 0.00655227)
(0.893521 -0.448967 0.00698906)
(0.880076 -0.474774 0.00742585)
(0.865886 -0.500179 0.00786263)
(0.850963 -0.525159 0.0082994)
(0.83532 -0.549695 0.00873617)
(0.818969 -0.573765 0.00917293)
(0.801924 -0.597348 0.00960968)
(0.784201 -0.620426 0.0100464)
(0.765814 -0.642977 0.0104832)
(0.746778 -0.664984 0.0109199)
(0.72711 -0.686427 0.0113566)
(0.706827 -0.707288 0.0117933)
(0.685945 -0.72755 0.01223)
(0.664483 -0.747196 0.0126667)
(0.642458 -0.766209 0.0131034)
(0.61989 -0.784572 0.0135401)
(0.596797 -0.802271 0.0139768)
(0.573199 -0.819289 0.0144134)
(0.549116 -0.835614 0.0148501)
(0.524569 -0.851231 0.0152867)
(0.499578 -0.866126 0.0157233)
(0.474164 -0.880288 0.0161599)
(0.448349 -0.893704 0.0165965)
(0.422156 -0.906363 0.0170331)
(0.395605 -0.918255 0.0174697)
(0.36872 -0.929368 0.0179062)
(0.341523 -0.939694 0.0183428)
(0.314038 -0.949225 0.0187793)
(0.286288 -0.957951 0.0192158)
(0.258296 -0.965866 0.0196523)
(0.230086 -0.972963 0.0200888)
(0.201682 -0.979236 0.0205253)
(0.173108 -0.98468 0.0209617)
(0.144388 -0.98929 0.0213982)
(0.115546 -0.993062 0.0218346)
(0.0866081 -0.995993 0.022271)
(0.0575973 -0.998082 0.0227074)
(0.0285386 -0.999325 0.0231438)
(-0.000543383 -0.999722 0.0235801)
(-0.029624 -0.999273 0.0240164)
(-0.0586786 -0.997977 0.0244528)
(-0.0876826 -0.995837 0.0248891)
(-0.116611 -0.992855 0.0253253)
(-0.145441 -0.989032 0.0257616)
(-0.174146 -0.984371 0.0261978)
(-0.202702 -0.978878 0.0266341)
(-0.231087 -0.972557 0.0270703)
(-0.259274 -0.965412 0.0275064)
(-0.287241 -0.957451 0.0279426)
(-0.314964 -0.948679 0.0283787)
(-0.34242 -0.939105 0.0288149)
(-0.369584 -0.928737 0.029251)
(-0.396435 -0.917583 0.029687)
(-0.422949 -0.905653 0.0301231)
(-0.449104 -0.892957 0.0305591)
(-0.474878 -0.879506 0.0309951)
(-0.50025 -0.865311 0.0314311)
(-0.525196 -0.850384 0.031867)
(-0.549698 -0.834739 0.032303)
(-0.573733 -0.818388 0.0327389)
(-0.597282 -0.801345 0.0331748)
(-0.620324 -0.783625 0.0336106)
(-0.642841 -0.765243 0.0340465)
(-0.664813 -0.746214 0.0344823)
(-0.686221 -0.726554 0.034918)
(-0.707048 -0.706281 0.0353538)
(-0.727276 -0.685412 0.0357895)
(-0.746887 -0.663963 0.0362252)
(-0.765866 -0.641954 0.0366609)
(-0.784196 -0.619403 0.0370965)
(-0.801862 -0.596329 0.0375321)
(-0.818849 -0.572752 0.0379677)
(-0.835142 -0.548692 0.0384033)
(-0.850728 -0.524169 0.0388388)
(-0.865594 -0.499203 0.0392743)
(-0.879727 -0.473817 0.0397098)
(-0.893116 -0.448032 0.0401452)
(-0.905748 -0.421869 0.0405806)
(-0.917614 -0.39535 0.041016)
(-0.928704 -0.368499 0.0414514)
(-0.939007 -0.341337 0.0418867)
(-0.948516 -0.313889 0.042322)
(-0.957222 -0.286176 0.0427572)
(-0.965119 -0.258224 0.0431924)
(-0.972199 -0.230054 0.0436276)
(-0.978457 -0.201692 0.0440628)
(-0.983888 -0.17316 0.0444979)
(-0.988486 -0.144484 0.044933)
(-0.992249 -0.115688 0.045368)
(-0.995173 -0.0867953 0.045803)
(-0.997255 -0.0578312 0.046238)
(-0.998494 -0.0288198 0.046673)
(-0.99889 0.000214043 0.0471079)
(-0.998441 0.029246 0.0475428)
(-0.997148 0.0582514 0.0479776)
(-0.995013 0.0872057 0.0484124)
(-0.992037 0.116085 0.0488472)
(-0.988224 0.144863 0.0492819)
(-0.983575 0.173518 0.0497166)
(-0.978096 0.202024 0.0501512)
(-0.97179 0.230358 0.0505859)
(-0.964664 0.258495 0.0510204)
(-0.956724 0.286412 0.051455)
(-0.947976 0.314085 0.0518895)
(-0.938428 0.341491 0.0523239)
(-0.928087 0.368606 0.0527584)
(-0.916964 0.395409 0.0531927)
(-0.905067 0.421875 0.0536271)
(-0.892406 0.447983 0.0540614)
(-0.878992 0.473712 0.0544956)
(-0.864837 0.499038 0.0549299)
(-0.849953 0.523941 0.055364)
(-0.834353 0.5484 0.0557982)
(-0.818048 0.572394 0.0562323)
(-0.801055 0.595903 0.0566663)
(-0.783386 0.618907 0.0571003)
(-0.765057 0.641387 0.0575343)
(-0.746084 0.663324 0.0579682)
(-0.726483 0.684699 0.0584021)
(-0.706269 0.705494 0.0588359)
(-0.685461 0.725693 0.0592697)
(-0.664076 0.745277 0.0597035)
(-0.642133 0.764231 0.0601372)
(-0.619649 0.782538 0.0605708)
(-0.596644 0.800184 0.0610044)
(-0.573137 0.817153 0.061438)
(-0.549149 0.833431 0.0618715)
(-0.524699 0.849005 0.062305)
(-0.499809 0.863861 0.0627384)
(-0.474499 0.877987 0.0631718)
(-0.44879 0.891371 0.0636051)
(-0.422706 0.904002 0.0640384)
(-0.396266 0.915869 0.0644716)
(-0.369495 0.926963 0.0649048)
(-0.342415 0.937274 0.0653379)
(-0.315048 0.946794 0.065771)
(-0.287417 0.955515 0.066204)
(-0.259547 0.963429 0.066637)
(-0.23146 0.97053 0.06707)
(-0.203181 0.976812 0.0675029)
(-0.174732 0.982269 0.0679357)
(-0.146139 0.986899 0.0683685)
(-0.117426 0.990696 0.0688012)
(-0.0886155 0.993657 0.0692339)
(-0.0597332 0.99578 0.0696665)
(-0.0308032 0.997064 0.0700991)
(-0.00184993 0.997508 0.0705316)
(0.0271023 0.997111 0.0709641)
(0.0560289 0.995873 0.0713965)
(0.0849057 0.993797 0.0718288)
(0.113708 0.990883 0.0722612)
(0.142412 0.987134 0.0726934)
(0.170994 0.982555 0.0731256)
(0.199428 0.977148 0.0735577)
(0.227692 0.970918 0.0739898)
(0.255761 0.963871 0.0744219)
(0.283612 0.956013 0.0748538)
(0.311222 0.947351 0.0752858)
(0.338567 0.937891 0.0757176)
(0.365623 0.927643 0.0761494)
(0.39237 0.916614 0.0765812)
(0.418783 0.904815 0.0770129)
(0.444841 0.892255 0.0774445)
(0.470522 0.878945 0.0778761)
(0.495804 0.864897 0.0783076)
(0.520666 0.850122 0.0787391)
(0.545088 0.834632 0.0791705)
(0.569048 0.818442 0.0796018)
(0.592527 0.801565 0.0800331)
(0.615504 0.784015 0.0804643)
(0.637962 0.765807 0.0808955)
(0.65988 0.746957 0.0813266)
(0.68124 0.72748 0.0817576)
(0.702025 0.707393 0.0821886)
(0.722218 0.686714 0.0826195)
(0.7418 0.665459 0.0830504)
(0.760757 0.643646 0.0834812)
(0.779071 0.621294 0.0839119)
(0.796729 0.598423 0.0843426)
(0.813714 0.57505 0.0847732)
(0.830014 0.551197 0.0852037)
(0.845613 0.526882 0.0856342)
(0.8605 0.502128 0.0860646)
(0.874662 0.476954 0.086495)
(0.888087 0.451382 0.0869253)
(0.900764 0.425433 0.0873555)
(0.912682 0.39913 0.0877856)
(0.923832 0.372494 0.0882157)
(0.934204 0.345549 0.0886458)
(0.94379 0.318316 0.0890757)
(0.952582 0.290819 0.0895056)
(0.960573 0.26308 0.0899354)
(0.967756 0.235124 0.0903652)
(0.974124 0.206974 0.0907949)
(0.979674 0.178653 0.0912245)
(0.9844 0.150185 0.0916541)
(0.988299 0.121595 0.0920836)
(0.991368 0.0929059 0.092513)
(0.993603 0.0641423 0.0929423)
(0.995004 0.0353282 0.0933716)
(0.99557 0.00648807 0.0938008)
(0.995299 -0.022354 0.09423)
(0.994194 -0.0511739 0.094659)
(0.992253 -0.0799472 0.095088)
(0.989481 -0.10865 0.095517)
(0.985878 -0.137258 0.0959458)
(0.981448 -0.165747 0.0963746)
(0.976195 -0.194093 0.0968033)
(0.970124 -0.222274 0.097232)
(0.96324 -0.250264 0.0976606)
(0.955548 -0.27804 0.0980891)
(0.947056 -0.30558 0.0985175)
(0.937771 -0.33286 0.0989458)
(0.9277 -0.359857 0.0993741)
(0.916853 -0.386549 0.0998023)
(0.905238 -0.412914 0.10023)
(0.892866 -0.438929 0.100659)
(0.879747 -0.464572 0.101087)
(0.865892 -0.489823 0.101514)
(0.851313 -0.51466 0.101942)
(0.836022 -0.539062 0.10237)
(0.820033 -0.563009 0.102798)
(0.803359 -0.586481 0.103225)
(0.786013 -0.609458 0.103653)
(0.768012 -0.631922 0.10408)
(0.749369 -0.653853 0.104508)
(0.730102 -0.675233 0.104935)
(0.710225 -0.696046 0.105362)
(0.689756 -0.716272 0.105789)
(0.668712 -0.735895 0.106216)
(0.647112 -0.7549 0.106643)
(0.624972 -0.77327 0.10707)
(0.602312 -0.79099 0.107497)
(0.579151 -0.808045 0.107924)
(0.555509 -0.824421 0.108351)
(0.531404 -0.840105 0.108777)
(0.506859 -0.855084 0.109204)
(0.481893 -0.869345 0.10963)
(0.456527 -0.882877 0.110056)
(0.430782 -0.895667 0.110483)
(0.404681 -0.907707 0.110909)
(0.378246 -0.918986 0.111335)
(0.351497 -0.929494 0.111761)
(0.324459 -0.939223 0.112187)
(0.297153 -0.948166 0.112613)
(0.269602 -0.956314 0.113039)
(0.24183 -0.963662 0.113464)
(0.21386 -0.970202 0.11389)
(0.185716 -0.975931 0.114316)
(0.15742 -0.980843 0.114741)
(0.128997 -0.984935 0.115166)
(0.10047 -0.988203 0.115592)
(0.0718639 -0.990644 0.116017)
(0.0432018 -0.992257 0.116442)
(0.0145079 -0.993042 0.116867)
(-0.0141938 -0.992996 0.117292)
(-0.0428792 -0.992121 0.117717)
(-0.0715245 -0.990418 0.118141)
(-0.100106 -0.987887 0.118566)
(-0.128599 -0.984532 0.118991)
(-0.15698 -0.980356 0.119415)
(-0.185226 -0.975361 0.11984)
(-0.213313 -0.969553 0.120264)
(-0.241218 -0.962937 0.120688)
(-0.268917 -0.955518 0.121112)
(-0.296387 -0.947303 0.121536)
(-0.323606 -0.938299 0.12196)
(-0.35055 -0.928513 0.122384)
(-0.377198 -0.917954 0.122808)
(-0.403526 -0.906631 0.123232)
(-0.429514 -0.894554 0.123655)
(-0.45514 -0.881733 0.124079)
(-0.480382 -0.868178 0.124502)
(-0.505219 -0.853901 0.124926)
(-0.529631 -0.838915 0.125349)
(-0.553597 -0.823232 0.125772)
(-0.577099 -0.806865 0.126195)
(-0.600115 -0.789829 0.126618)
(-0.622628 -0.772137 0.127041)
(-0.644618 -0.753804 0.127464)
(-0.666067 -0.734847 0.127887)
(-0.686958 -0.71528 0.128309)
(-0.707273 -0.695121 0.128732)
(-0.726996 -0.674386 0.129154)
(-0.74611 -0.653093 0.129577)
(-0.764599 -0.631259 0.129999)
(-0.782449 -0.608904 0.130421)
(-0.799644 -0.586046 0.130843)
(-0.816171 -0.562703 0.131265)
(-0.832015 -0.538896 0.131687)
(-0.847165 -0.514645 0.132109)
(-0.861607 -0.489969 0.13253)
(-0.875329 -0.46489 0.132952)
(-0.888321 -0.439428 0.133373)
(-0.900572 -0.413606 0.133795)
(-0.912071 -0.387443 0.134216)
(-0.92281 -0.360963 0.134637)
(-0.93278 -0.334188 0.135058)
(-0.941972 -0.307139 0.135479)
(-0.950379 -0.279839 0.1359)
(-0.957995 -0.252312 0.136321)
(-0.964814 -0.22458 0.136742)
(-0.970829 -0.196665 0.137162)
(-0.976037 -0.168593 0.137583)
(-0.980432 -0.140385 0.138003)
(-0.984012 -0.112066 0.138423)
(-0.986774 -0.0836585 0.138844)
(-0.988716 -0.0551867 0.139264)
(-0.989837 -0.0266742 0.139684)
(-0.990135 0.00185539 0.140104)
(-0.989611 0.0303783 0.140523)
(-0.988266 0.0588708 0.140943)
(-0.9861 0.0873093 0.141363)
(-0.983117 0.11567 0.141782)
(-0.979318 0.14393 0.142202)
(-0.974707 0.172065 0.142621)
(-0.969288 0.200052 0.14304)
(-0.963066 0.227868 0.143459)
(-0.956046 0.25549 0.143878)
(-0.948235 0.282895 0.144297)
(-0.939638 0.31006 0.144716)
(-0.930264 0.336964 0.145134)
(-0.920121 0.363582 0.145553)
(-0.909216 0.389895 0.145971)
(-0.89756 0.415879 0.14639)
(-0.885163 0.441514 0.146808)
(-0.872034 0.466778 0.147226)
(-0.858185 0.49165 0.147644)
(-0.843628 0.51611 0.148062)
(-0.828374 0.540139 0.14848)
(-0.812438 0.563715 0.148898)
(-0.795831 0.58682 0.149315)
(-0.778569 0.609434 0.149733)
(-0.760665 0.63154 0.15015)
(-0.742136 0.653119 0.150568)
(-0.722995 0.674153 0.150985)
(-0.70326 0.694624 0.151402)
(-0.682947 0.714517 0.151819)
(-0.662072 0.733815 0.152236)
(-0.640654 0.752502 0.152653)
(-0.61871 0.770563 0.153069)
(-0.596259 0.787983 0.153486)
(-0.573318 0.804748 0.153902)
(-0.549909 0.820845 0.154318)
(-0.526049 0.836259 0.154735)
(-0.501759 0.850979 0.155151)
(-0.47706 0.864993 0.155567)
(-0.451971 0.878289 0.155983)
(-0.426513 0.890857 0.156398)
(-0.400708 0.902686 0.156814)
(-0.374578 0.913767 0.15723)
(-0.348143 0.924091 0.157645)
(-0.321426 0.93365 0.15806)
(-0.294449 0.942436 0.158476)
(-0.267234 0.950442 0.158891)
(-0.239804 0.957662 0.159306)
(-0.212182 0.964089 0.159721)
(-0.18439 0.96972 0.160135)
(-0.156452 0.974549 0.16055)
(-0.12839 0.978574 0.160965)
(-0.100229 0.98179 0.161379)
(-0.0719901 0.984195 0.161793)
(-0.043698 0.985789 0.162208)
(-0.0153757 0.986569 0.162622)
(0.0129534 0.986535 0.163036)
(0.0412659 0.985688 0.16345)
(0.0695385 0.984029 0.163863)
(0.0977479 0.981559 0.164277)
(0.125871 0.978281 0.16469)
(0.153884 0.974197 0.165104)
(0.181765 0.969312 0.165517)
(0.20949 0.963629 0.16593)
(0.237036 0.957154 0.166343)
(0.264382 0.949892 0.166756)
(0.291504 0.941849 0.167169)
(0.31838 0.933033 0.167582)
(0.344989 0.92345 0.167994)
(0.371308 0.91311 0.168407)
(0.397316 0.90202 0.168819)
(0.422991 0.890191 0.169231)
(0.448313 0.877631 0.169643)
(0.47326 0.864353 0.170055)
(0.497813 0.850367 0.170467)
(0.521951 0.835684 0.170879)
(0.545655 0.820317 0.171291)
(0.568905 0.80428 0.171702)
(0.591682 0.787584 0.172114)
(0.613968 0.770246 0.172525)
(0.635745 0.752278 0.172936)
(0.656994 0.733696 0.173347)
(0.6777 0.714515 0.173758)
(0.697843 0.694752 0.174169)
(0.71741 0.674422 0.174579)
(0.736383 0.653543 0.17499)
(0.754747 0.632133 0.1754)
(0.772488 0.610208 0.175811)
(0.78959 0.587787 0.176221)
(0.806041 0.564889 0.176631)
(0.821827 0.541532 0.177041)
(0.836935 0.517737 0.177451)
(0.851353 0.493522 0.17786)
(0.865069 0.468908 0.17827)
(0.878074 0.443915 0.178679)
(0.890355 0.418564 0.179089)
(0.901903 0.392875 0.179498)
(0.91271 0.36687 0.179907)
(0.922766 0.34057 0.180316)
(0.932064 0.313998 0.180725)
(0.940596 0.287174 0.181134)
(0.948356 0.260121 0.181542)
(0.955337 0.232861 0.181951)
(0.961535 0.205417 0.182359)
(0.966943 0.177811 0.182767)
(0.971559 0.150066 0.183175)
(0.975379 0.122205 0.183583)
(0.978399 0.0942496 0.183991)
(0.980618 0.066224 0.184399)
(0.982034 0.0381507 0.184806)
(0.982647 0.0100527 0.185214)
(0.982456 -0.0180469 0.185621)
(0.981461 -0.0461251 0.186028)
(0.979664 -0.074159 0.186435)
(0.977067 -0.102126 0.186842)
(0.973672 -0.130002 0.187249)
(0.969482 -0.157766 0.187656)
(0.964501 -0.185394 0.188062)
(0.958733 -0.212864 0.188468)
(0.952183 -0.240154 0.188875)
(0.944857 -0.267241 0.189281)
(0.936761 -0.294104 0.189687)
(0.927903 -0.32072 0.190093)
(0.918289 -0.347068 0.190499)
(0.907928 -0.373126 0.190904)
(0.896828 -0.398873 0.19131)
(0.885 -0.424289 0.191715)
(0.872452 -0.449352 0.19212)
(0.859196 -0.474043 0.192525)
(0.845242 -0.498341 0.19293)
(0.830603 -0.522227 0.193335)
(0.815289 -0.545681 0.19374)
(0.799315 -0.568685 0.194145)
(0.782694 -0.59122 0.194549)
(0.765439 -0.613267 0.194953)
(0.747564 -0.63481 0.195358)
(0.729085 -0.65583 0.195762)
(0.710017 -0.67631 0.196166)
(0.690375 -0.696235 0.196569)
(0.670176 -0.715588 0.196973)
(0.649436 -0.734354 0.197377)
(0.628173 -0.752517 0.19778)
(0.606404 -0.770063 0.198183)
(0.584147 -0.786979 0.198586)
(0.56142 -0.80325 0.198989)
(0.538243 -0.818864 0.199392)
(0.514633 -0.833807 0.199795)
(0.490611 -0.848069 0.200197)
(0.466197 -0.861638 0.2006)
(0.441409 -0.874503 0.201002)
(0.416269 -0.886655 0.201404)
(0.390797 -0.898082 0.201806)
(0.365014 -0.908777 0.202208)
(0.338941 -0.918732 0.20261)
(0.3126 -0.927937 0.203012)
(0.286011 -0.936387 0.203413)
(0.259197 -0.944074 0.203815)
(0.232179 -0.950994 0.204216)
(0.20498 -0.957139 0.204617)
(0.177622 -0.962506 0.205018)
(0.150126 -0.967091 0.205419)
(0.122516 -0.97089 0.205819)
(0.0948136 -0.973901 0.20622)
(0.0670414 -0.976122 0.20662)
(0.0392221 -0.97755 0.207021)
(0.0113782 -0.978186 0.207421)
(-0.0164676 -0.978028 0.207821)
(-0.0442929 -0.977078 0.208221)
(-0.072075 -0.975337 0.20862)
(-0.0997915 -0.972806 0.20902)
(-0.12742 -0.969488 0.209419)
(-0.154938 -0.965386 0.209818)
(-0.182323 -0.960503 0.210218)
(-0.209554 -0.954844 0.210617)
(-0.236607 -0.948414 0.211016)
(-0.263462 -0.941218 0.211414)
(-0.290097 -0.933263 0.211813)
(-0.31649 -0.924554 0.212211)
(-0.342621 -0.9151 0.21261)
(-0.368467 -0.904909 0.213008)
(-0.394008 -0.893989 0.213406)
(-0.419224 -0.882349 0.213804)
(-0.444095 -0.869999 0.214201)
(-0.4686 -0.856949 0.214599)
(-0.492719 -0.843211 0.214996)
(-0.516435 -0.828795 0.215394)
(-0.539727 -0.813713 0.215791)
(-0.562576 -0.797979 0.216188)
(-0.584966 -0.781605 0.216585)
(-0.606877 -0.764604 0.216982)
(-0.628293 -0.746991 0.217378)
(-0.649195 -0.72878 0.217775)
(-0.669569 -0.709985 0.218171)
(-0.689396 -0.690624 0.218567)
(-0.708663 -0.67071 0.218963)
(-0.727353 -0.650261 0.219359)
(-0.745451 -0.629294 0.219755)
(-0.762943 -0.607825 0.22015)
(-0.779816 -0.585873 0.220546)
(-0.796056 -0.563454 0.220941)
(-0.81165 -0.540587 0.221336)
(-0.826586 -0.517292 0.221731)
(-0.840852 -0.493586 0.222126)
(-0.854438 -0.469489 0.222521)
(-0.867332 -0.445022 0.222915)
(-0.879524 -0.420203 0.22331)
(-0.891005 -0.395052 0.223704)
(-0.901766 -0.369591 0.224098)
(-0.911799 -0.34384 0.224492)
(-0.921096 -0.317819 0.224886)
(-0.929649 -0.29155 0.22528)
(-0.937453 -0.265054 0.225673)
(-0.944501 -0.238352 0.226067)
(-0.950788 -0.211467 0.22646)
(-0.956309 -0.184419 0.226853)
(-0.961061 -0.15723 0.227246)
(-0.965039 -0.129923 0.227639)
(-0.968241 -0.102519 0.228031)
(-0.970665 -0.075041 0.228424)
(-0.97231 -0.0475103 0.228816)
(-0.973173 -0.0199493 0.229208)
(-0.973255 0.0076199 0.2296)
(-0.972557 0.0351751 0.229992)
(-0.971078 0.0626942 0.230384)
(-0.968821 0.0901552 0.230776)
(-0.965788 0.117536 0.231167)
(-0.961982 0.144815 0.231559)
(-0.957406 0.17197 0.23195)
(-0.952064 0.198979 0.232341)
(-0.94596 0.225821 0.232732)
(-0.939101 0.252474 0.233122)
(-0.931492 0.278918 0.233513)
(-0.923138 0.305131 0.233903)
(-0.914049 0.331091 0.234294)
(-0.90423 0.356779 0.234684)
(-0.893691 0.382175 0.235074)
(-0.882439 0.407257 0.235463)
(-0.870485 0.432006 0.235853)
(-0.857839 0.456402 0.236243)
(-0.84451 0.480426 0.236632)
(-0.830509 0.504059 0.237021)
(-0.815849 0.527282 0.23741)
(-0.800542 0.550077 0.237799)
(-0.784599 0.572426 0.238188)
(-0.768034 0.594311 0.238576)
(-0.750861 0.615714 0.238965)
(-0.733093 0.63662 0.239353)
(-0.714745 0.657012 0.239741)
(-0.695832 0.676872 0.240129)
(-0.676369 0.696187 0.240517)
(-0.656372 0.714941 0.240905)
(-0.635858 0.733118 0.241292)
(-0.614843 0.750706 0.24168)
(-0.593343 0.76769 0.242067)
(-0.571377 0.784056 0.242454)
(-0.548962 0.799793 0.242841)
(-0.526117 0.814887 0.243228)
(-0.502859 0.829328 0.243614)
(-0.479207 0.843104 0.244001)
(-0.455181 0.856204 0.244387)
(-0.430799 0.868618 0.244773)
(-0.406082 0.880338 0.245159)
(-0.38105 0.891352 0.245545)
(-0.355721 0.901654 0.245931)
(-0.330117 0.911236 0.246316)
(-0.304258 0.92009 0.246701)
(-0.278166 0.928209 0.247087)
(-0.251859 0.935588 0.247472)
(-0.225361 0.942221 0.247857)
(-0.198692 0.948102 0.248241)
(-0.171873 0.953229 0.248626)
(-0.144925 0.957596 0.24901)
(-0.117871 0.961202 0.249395)
(-0.0907309 0.964043 0.249779)
(-0.0635274 0.966117 0.250163)
(-0.0362819 0.967424 0.250546)
(-0.009016 0.967963 0.25093)
(0.0182487 0.967734 0.251313)
(0.0454905 0.966736 0.251697)
(0.0726878 0.964973 0.25208)
(0.099819 0.962444 0.252463)
(0.126863 0.959153 0.252846)
(0.153797 0.955103 0.253228)
(0.180602 0.950297 0.253611)
(0.207255 0.94474 0.253993)
(0.233736 0.938435 0.254376)
(0.260023 0.93139 0.254758)
(0.286096 0.923609 0.25514)
(0.311934 0.915099 0.255521)
(0.337517 0.905867 0.255903)
(0.362826 0.895922 0.256284)
(0.387839 0.885271 0.256665)
(0.412537 0.873922 0.257047)
(0.436902 0.861886 0.257427)
(0.460913 0.849173 0.257808)
(0.484552 0.835791 0.258189)
(0.507801 0.821754 0.258569)
(0.530642 0.807072 0.25895)
(0.553055 0.791756 0.25933)
(0.575025 0.77582 0.25971)
(0.596534 0.759277 0.26009)
(0.617565 0.742139 0.260469)
(0.638101 0.72442 0.260849)
(0.658128 0.706136 0.261228)
(0.677628 0.6873 0.261607)
(0.696588 0.667928 0.261986)
(0.714993 0.648035 0.262365)
(0.732828 0.627638 0.262744)
(0.750079 0.606753 0.263122)
(0.766733 0.585395 0.263501)
(0.782778 0.563584 0.263879)
(0.798201 0.541335 0.264257)
(0.81299 0.518667 0.264635)
(0.827134 0.495598 0.265012)
(0.840623 0.472146 0.26539)
(0.853445 0.44833 0.265767)
(0.865591 0.424169 0.266145)
(0.877052 0.399682 0.266522)
(0.88782 0.374888 0.266898)
(0.897886 0.349808 0.267275)
(0.907242 0.32446 0.267652)
(0.915882 0.298866 0.268028)
(0.923799 0.273045 0.268404)
(0.930988 0.247018 0.26878)
(0.937443 0.220806 0.269156)
(0.94316 0.194429 0.269532)
(0.948133 0.167907 0.269908)
(0.952361 0.141263 0.270283)
(0.95584 0.114516 0.270658)
(0.958567 0.0876881 0.271033)
(0.960542 0.0608003 0.271408)
(0.961762 0.0338737 0.271783)
(0.962228 0.00692941 0.272158)
(0.961939 -0.0200114 0.272532)
(0.960895 -0.0469277 0.272906)
(0.959099 -0.0737982 0.273281)
(0.956552 -0.100602 0.273655)
(0.953257 -0.127318 0.274028)
(0.949216 -0.153926 0.274402)
(0.944433 -0.180404 0.274775)
(0.938912 -0.206732 0.275149)
(0.932658 -0.232889 0.275522)
(0.925676 -0.258856 0.275895)
(0.917972 -0.284611 0.276267)
(0.909553 -0.310135 0.27664)
(0.900425 -0.335408 0.277013)
(0.890596 -0.360411 0.277385)
(0.880075 -0.385123 0.277757)
(0.868869 -0.409526 0.278129)
(0.856988 -0.4336 0.278501)
(0.844441 -0.457328 0.278872)
(0.83124 -0.480691 0.279244)
(0.817393 -0.50367 0.279615)
(0.802914 -0.526249 0.279986)
(0.787812 -0.548409 0.280357)
(0.772101 -0.570134 0.280728)
(0.755793 -0.591406 0.281098)
(0.738901 -0.61221 0.281469)
(0.721438 -0.63253 0.281839)
(0.703419 -0.652349 0.282209)
(0.684858 -0.671654 0.282579)
(0.665769 -0.690428 0.282949)
(0.646168 -0.708659 0.283319)
(0.626071 -0.726331 0.283688)
(0.605493 -0.743431 0.284057)
(0.584451 -0.759947 0.284426)
(0.562961 -0.775865 0.284795)
(0.54104 -0.791174 0.285164)
(0.518706 -0.805863 0.285533)
(0.495976 -0.81992 0.285901)
(0.472868 -0.833334 0.286269)
(0.449401 -0.846096 0.286637)
(0.425592 -0.858195 0.287005)
(0.401461 -0.869624 0.287373)
(0.377026 -0.880373 0.287741)
(0.352307 -0.890434 0.288108)
(0.327323 -0.899801 0.288475)
(0.302093 -0.908466 0.288842)
(0.276638 -0.916422 0.289209)
(0.250976 -0.923665 0.289576)
(0.225129 -0.930188 0.289942)
(0.199117 -0.935988 0.290309)
(0.172959 -0.94106 0.290675)
(0.146676 -0.9454 0.291041)
(0.120288 -0.949006 0.291407)
(0.0938165 -0.951876 0.291773)
(0.0672815 -0.954007 0.292138)
(0.0407037 -0.955398 0.292504)
(0.0141037 -0.956049 0.292869)
(-0.0124979 -0.955959 0.293234)
(-0.0390805 -0.95513 0.293599)
(-0.0656235 -0.953561 0.293963)
(-0.0921063 -0.951256 0.294328)
(-0.118509 -0.948215 0.294692)
(-0.14481 -0.944443 0.295056)
(-0.17099 -0.939941 0.29542)
(-0.197029 -0.934715 0.295784)
(-0.222906 -0.928768 0.296148)
(-0.248602 -0.922105 0.296511)
(-0.274097 -0.914733 0.296875)
(-0.299371 -0.906657 0.297238)
(-0.324405 -0.897884 0.297601)
(-0.349179 -0.888421 0.297964)
(-0.373676 -0.878276 0.298326)
(-0.397875 -0.867456 0.298689)
(-0.421759 -0.855972 0.299051)
(-0.445309 -0.843832 0.299413)
(-0.468507 -0.831045 0.299775)
(-0.491336 -0.817622 0.300137)
(-0.513779 -0.803575 0.300498)
(-0.535817 -0.788913 0.30086)
(-0.557435 -0.773649 0.301221)
(-0.578616 -0.757794 0.301582)
(-0.599343 -0.741362 0.301943)
(-0.619602 -0.724365 0.302304)
(-0.639377 -0.706817 0.302664)
(-0.658653 -0.688732 0.303025)
(-0.677416 -0.670123 0.303385)
(-0.695651 -0.651006 0.303745)
(-0.713344 -0.631395 0.304105)
(-0.730483 -0.611307 0.304464)
(-0.747055 -0.590755 0.304824)
(-0.763046 -0.569758 0.305183)
(-0.778446 -0.54833 0.305542)
(-0.793242 -0.526489 0.305901)
(-0.807425 -0.504252 0.30626)
(-0.820982 -0.481636 0.306619)
(-0.833905 -0.458659 0.306977)
(-0.846183 -0.435339 0.307336)
(-0.857808 -0.411693 0.307694)
(-0.868771 -0.38774 0.308052)
(-0.879064 -0.363498 0.308409)
(-0.888679 -0.338987 0.308767)
(-0.897611 -0.314225 0.309124)
(-0.905851 -0.289232 0.309482)
(-0.913395 -0.264026 0.309839)
(-0.920237 -0.238627 0.310196)
(-0.926372 -0.213055 0.310552)
(-0.931796 -0.18733 0.310909)
(-0.936505 -0.16147 0.311265)
(-0.940496 -0.135497 0.311621)
(-0.943767 -0.10943 0.311977)
(-0.946314 -0.0832881 0.312333)
(-0.948138 -0.0570926 0.312689)
(-0.949237 -0.0308633 0.313044)
(-0.94961 -0.00462 0.3134)
(-0.949258 0.0216171 0.313755)
(-0.948181 0.0478279 0.31411)
(-0.946381 0.0739925 0.314465)
(-0.943859 0.100091 0.314819)
(-0.940619 0.126103 0.315174)
(-0.936662 0.15201 0.315528)
(-0.931992 0.177791 0.315882)
(-0.926613 0.203427 0.316236)
(-0.920531 0.228898 0.31659)
(-0.913749 0.254185 0.316943)
(-0.906273 0.279269 0.317297)
(-0.898111 0.304132 0.31765)
(-0.889267 0.328753 0.318003)
(-0.87975 0.353115 0.318356)
(-0.869567 0.377199 0.318709)
(-0.858726 0.400987 0.319061)
(-0.847236 0.424461 0.319413)
(-0.835106 0.447603 0.319766)
(-0.822345 0.470396 0.320118)
(-0.808965 0.492824 0.320469)
(-0.794975 0.514868 0.320821)
(-0.780386 0.536513 0.321172)
(-0.76521 0.557742 0.321524)
(-0.749459 0.57854 0.321875)
(-0.733144 0.598891 0.322226)
(-0.71628 0.618779 0.322576)
(-0.698878 0.638191 0.322927)
(-0.680953 0.657111 0.323277)
(-0.662518 0.675525 0.323628)
(-0.643588 0.693421 0.323978)
(-0.624178 0.710784 0.324327)
(-0.604302 0.727602 0.324677)
(-0.583975 0.743862 0.325027)
(-0.563214 0.759553 0.325376)
(-0.542035 0.774662 0.325725)
(-0.520452 0.78918 0.326074)
(-0.498484 0.803095 0.326423)
(-0.476148 0.816397 0.326771)
(-0.45346 0.829076 0.32712)
(-0.430438 0.841123 0.327468)
(-0.4071 0.852529 0.327816)
(-0.383462 0.863287 0.328164)
(-0.359544 0.873389 0.328512)
(-0.335364 0.882827 0.328859)
(-0.310939 0.891594 0.329207)
(-0.286289 0.899685 0.329554)
(-0.261433 0.907093 0.329901)
(-0.236388 0.913814 0.330248)
(-0.211175 0.919844 0.330594)
(-0.185813 0.925177 0.330941)
(-0.16032 0.92981 0.331287)
(-0.134716 0.93374 0.331633)
(-0.109021 0.936965 0.331979)
(-0.0832531 0.939483 0.332325)
(-0.0574327 0.941293 0.332671)
(-0.031579 0.942392 0.333016)
(-0.00571164 0.942782 0.333361)
(0.02015 0.942462 0.333706)
(0.0459865 0.941432 0.334051)
(0.0717783 0.939695 0.334396)
(0.0975061 0.937252 0.33474)
(0.123151 0.934105 0.335085)
(0.148692 0.930257 0.335429)
(0.174113 0.925711 0.335773)
(0.199392 0.920472 0.336117)
(0.224512 0.914543 0.33646)
(0.249453 0.90793 0.336804)
(0.274197 0.900637 0.337147)
(0.298726 0.892672 0.33749)
(0.323021 0.88404 0.337833)
(0.347065 0.874748 0.338176)
(0.370838 0.864803 0.338518)
(0.394324 0.854214 0.338861)
(0.417505 0.842989 0.339203)
(0.440365 0.831137 0.339545)
(0.462885 0.818666 0.339887)
(0.48505 0.805588 0.340228)
(0.506843 0.791911 0.34057)
(0.528248 0.777647 0.340911)
(0.549249 0.762806 0.341252)
(0.56983 0.747401 0.341593)
(0.589978 0.731442 0.341934)
(0.609676 0.714943 0.342274)
(0.628911 0.697916 0.342615)
(0.647668 0.680374 0.342955)
(0.665933 0.662331 0.343295)
(0.683694 0.643799 0.343635)
(0.700937 0.624795 0.343974)
(0.71765 0.605332 0.344314)
(0.733821 0.585424 0.344653)
(0.749437 0.565088 0.344992)
(0.764489 0.544338 0.345331)
(0.778964 0.52319 0.34567)
(0.792852 0.50166 0.346009)
(0.806144 0.479766 0.346347)
(0.81883 0.457522 0.346685)
(0.830901 0.434947 0.347023)
(0.842348 0.412056 0.347361)
(0.853163 0.388868 0.347699)
(0.863339 0.3654 0.348036)
(0.872868 0.341669 0.348374)
(0.881744 0.317693 0.348711)
(0.88996 0.293491 0.349048)
(0.897511 0.26908 0.349385)
(0.904392 0.244479 0.349721)
(0.910598 0.219706 0.350058)
(0.916125 0.19478 0.350394)
(0.920969 0.169719 0.35073)
(0.925127 0.144542 0.351066)
(0.928597 0.119268 0.351401)
(0.931376 0.0939162 0.351737)
(0.933462 0.0685045 0.352072)
(0.934856 0.0430522 0.352407)
(0.935555 0.0175783 0.352742)
(0.935561 -0.0078983 0.353077)
(0.934873 -0.0333588 0.353412)
(0.933492 -0.0587842 0.353746)
(0.931421 -0.0841558 0.354081)
(0.92866 -0.109455 0.354415)
(0.925213 -0.134662 0.354748)
(0.921083 -0.15976 0.355082)
(0.916272 -0.184729 0.355416)
(0.910786 -0.209552 0.355749)
(0.904628 -0.234209 0.356082)
(0.897804 -0.258683 0.356415)
(0.890318 -0.282956 0.356748)
(0.882178 -0.30701 0.357081)
(0.87339 -0.330827 0.357413)
(0.863959 -0.35439 0.357745)
(0.853895 -0.377682 0.358077)
(0.843204 -0.400686 0.358409)
(0.831896 -0.423384 0.358741)
(0.819978 -0.445761 0.359073)
(0.807461 -0.467799 0.359404)
(0.794353 -0.489484 0.359735)
(0.780664 -0.510799 0.360066)
(0.766406 -0.531728 0.360397)
(0.75159 -0.552258 0.360728)
(0.736225 -0.572372 0.361058)
(0.720325 -0.592056 0.361388)
(0.703901 -0.611296 0.361718)
(0.686966 -0.630079 0.362048)
(0.669532 -0.64839 0.362378)
(0.651613 -0.666216 0.362708)
(0.633222 -0.683545 0.363037)
(0.614373 -0.700365 0.363366)
(0.59508 -0.716663 0.363695)
(0.575358 -0.732427 0.364024)
(0.555222 -0.747647 0.364353)
(0.534686 -0.762312 0.364681)
(0.513766 -0.77641 0.365009)
(0.492477 -0.789933 0.365337)
(0.470836 -0.802871 0.365665)
(0.448859 -0.815214 0.365993)
(0.426562 -0.826955 0.366321)
(0.403961 -0.838084 0.366648)
(0.381073 -0.848594 0.366975)
(0.357916 -0.858479 0.367302)
(0.334506 -0.86773 0.367629)
(0.310861 -0.876341 0.367956)
(0.286998 -0.884308 0.368282)
(0.262935 -0.891624 0.368608)
(0.23869 -0.898284 0.368934)
(0.21428 -0.904285 0.36926)
(0.189723 -0.909621 0.369586)
(0.165039 -0.914291 0.369912)
(0.140243 -0.91829 0.370237)
(0.115356 -0.921616 0.370562)
(0.0903952 -0.924268 0.370887)
(0.0653786 -0.926244 0.371212)
(0.0403247 -0.927542 0.371537)
(0.0152519 -0.928163 0.371861)
(-0.00982149 -0.928106 0.372185)
(-0.0348772 -0.927373 0.37251)
(-0.0598969 -0.925963 0.372834)
(-0.0848624 -0.923879 0.373157)
(-0.109756 -0.921122 0.373481)
(-0.134558 -0.917695 0.373804)
(-0.159253 -0.913601 0.374127)
(-0.18382 -0.908844 0.37445)
(-0.208244 -0.903427 0.374773)
(-0.232506 -0.897354 0.375096)
(-0.256588 -0.890631 0.375418)
(-0.280474 -0.883263 0.375741)
(-0.304145 -0.875256 0.376063)
(-0.327585 -0.866616 0.376385)
(-0.350778 -0.857349 0.376706)
(-0.373705 -0.847463 0.377028)
(-0.396352 -0.836967 0.377349)
(-0.4187 -0.825866 0.37767)
(-0.440736 -0.814171 0.377992)
(-0.462442 -0.80189 0.378312)
(-0.483804 -0.789032 0.378633)
(-0.504805 -0.775607 0.378953)
(-0.525431 -0.761625 0.379274)
(-0.545668 -0.747098 0.379594)
(-0.565501 -0.732035 0.379914)
(-0.584915 -0.716448 0.380234)
(-0.603897 -0.700348 0.380553)