/*--------------------------------*- C++ -*----------------------------------*\
| =========                 |                                                 |
| \\      /  F ield         | foam-extend: Open Source CFD                    |
|  \\    /   O peration     | Version:     4.1                                |
|   \\  /    A nd           | Web:         http://www.foam-extend.org         |
|    \\/     M anipulation  |                                                 |
\*---------------------------------------------------------------------------*/
FoamFile
{
    version     2.0;
    format      ascii;
    class       pointVectorField;
    location    "0";
    object      pointW;
}
// * * * * * * * * * * * * * * * * * * * * * * * * * * * * * * * * * * * * * //

dimensions      [0 1 0 0 0 0 0];

internalField   nonuniform List<vector> 
36
(
(0 0 0)
(0 0 0)
(0 0 0)
(0 0 0)
(0.0332456 0.483935 0)
(0.0332456 0.483935 0)
(-0.0647716 0.47912 0)
(-0.0647716 0.47912 0)
(-0.0283774 1.93109 0)
(-0.0283774 1.93109 0)
(-0.223468 1.91187 0)
(-0.223468 1.91187 0)
(-0.27882 4.32749 0)
(-0.27882 4.32749 0)
(-0.569104 4.28443 0)
(-0.569104 4.28443 0)
(-0.810223 7.65011 0)
(-0.810223 7.65011 0)
(-1.19291 7.57398 0)
(-1.19291 7.57398 0)
(-1.71202 11.8669 0)
(-1.71202 11.8669 0)
(-2.18341 11.7488 0)
(-2.18341 11.7488 0)
(-3.07006 16.9373 0)
(-3.07006 16.9373 0)
(-3.62563 16.7688 0)
(-3.62563 16.7688 0)
(-4.96581 22.8124 0)
(-4.96581 22.8124 0)
(-5.6002 22.5854 0)
(-5.6002 22.5854 0)
(-7.47558 29.4358 0)
(-7.47558 29.4358 0)
(-8.18269 29.1429 0)
(-8.18269 29.1429 0)
)
;

boundaryField
{
    left
    {
        type            calculated;
    }
    right
    {
        type            calculated;
    }
    beam
    {
        type            empty;
    }
}


// ************************************************************************* //
