/*--------------------------------*- C++ -*----------------------------------*\
| =========                 |                                                 |
| \\      /  F ield         | OpenFOAM: The Open Source CFD Toolbox           |
|  \\    /   O peration     | Version:  2312                                  |
|   \\  /    A nd           | Website:  www.openfoam.com                      |
|    \\/     M anipulation  |                                                 |
\*---------------------------------------------------------------------------*/
FoamFile
{
    version     2.0;
    format      ascii;
    arch        "LSB;label=32;scalar=64";
    class       volScalarField;
    location    "0.24";
    object      p;
}
// * * * * * * * * * * * * * * * * * * * * * * * * * * * * * * * * * * * * * //

dimensions      [1 -1 -2 0 0 0 0];

internalField   nonuniform List<scalar> 
299556
(
19.37475633
19.37476905
19.37478187
19.37479487
19.37480813
19.3748217
19.37483567
19.37485011
19.37486509
19.37488071
19.37489702
19.37491412
19.37493209
19.374951
19.37497096
19.37499203
19.37501432
19.37503791
19.37506288
19.37508934
19.37511736
19.37514704
19.37517847
19.37521171
19.37524686
19.37528399
19.37532315
19.37536441
19.37540781
19.37545339
19.37550115
19.37555111
19.37560323
19.37565748
19.37571379
19.37577205
19.37583214
19.37589391
19.37595714
19.37602161
19.37608705
19.37615314
19.37621954
19.37628586
19.37635167
19.37641652
19.37647991
19.37654134
19.37660027
19.37665617
19.37670849
19.37675668
19.37680024
19.37683864
19.37687144
19.37689821
19.37691857
19.37693223
19.37693895
19.37693854
19.37693092
19.37691607
19.37689406
19.37686501
19.37682913
19.37678668
19.37673799
19.37668342
19.37662339
19.37655833
19.37648871
19.37641497
19.37633759
19.37625702
19.37617371
19.37608807
19.37600049
19.37591132
19.37582088
19.37572946
19.3756373
19.3755446
19.37545153
19.37535822
19.37526477
19.37517125
19.37507769
19.37498412
19.37489052
19.37479686
19.3747689
19.37480691
19.37484523
19.37488408
19.37492367
19.37496423
19.37500597
19.37504911
19.37509389
19.37514054
19.37518929
19.37524039
19.37529408
19.3753506
19.37541022
19.3754732
19.3755398
19.37561029
19.37568493
19.37576399
19.37584773
19.37593643
19.37603034
19.3761297
19.37623475
19.37634571
19.37646277
19.37658609
19.37671582
19.37685206
19.37699485
19.37714419
19.37730002
19.37746221
19.37763056
19.37780477
19.37798447
19.37816917
19.37835828
19.37855112
19.37874685
19.37894456
19.37914321
19.37934161
19.37953852
19.37973256
19.37992227
19.38010611
19.38028251
19.38044983
19.38060644
19.38075073
19.38088112
19.38099612
19.38109433
19.38117449
19.3812355
19.38127643
19.38129657
19.38129539
19.3812726
19.38122818
19.3811623
19.38107536
19.38096797
19.38084092
19.3806952
19.3805319
19.38035225
19.38015756
19.3799492
19.37972856
19.37949705
19.37925601
19.37900677
19.37875058
19.37848861
19.3782219
19.37795142
19.37767802
19.37740241
19.37712522
19.37684694
19.37656795
19.37628857
19.37600897
19.3757293
19.3754496
19.37516985
19.37489
19.37478136
19.37484442
19.374908
19.37497246
19.37503816
19.37510545
19.37517471
19.3752463
19.37532061
19.37539801
19.37547891
19.37556369
19.37565278
19.37574657
19.37584551
19.37595002
19.37606054
19.3761775
19.37630136
19.37643256
19.37657154
19.37671875
19.3768746
19.3770395
19.37721386
19.37739802
19.37759231
19.37779702
19.37801236
19.37823851
19.37847555
19.37872348
19.3789822
19.3792515
19.37953103
19.37982032
19.38011874
19.38042548
19.38073958
19.38105988
19.38138503
19.38171348
19.38204351
19.38237318
19.38270038
19.38302285
19.38333814
19.38364372
19.38393693
19.38421509
19.38447547
19.38471538
19.3849322
19.38512345
19.3852868
19.38542014
19.38552164
19.38558976
19.3856233
19.38562139
19.38558356
19.38550975
19.38540026
19.38525576
19.38507726
19.3848661
19.38462388
19.38435245
19.38405387
19.3837303
19.38338404
19.3830174
19.3826327
19.38223221
19.38181812
19.38139252
19.38095733
19.38051432
19.38006508
19.37961101
19.37915332
19.37869302
19.37823093
19.37776771
19.37730384
19.37683966
19.37637538
19.37591107
19.37544674
19.3749823
19.37479363
19.37488135
19.3749698
19.37505947
19.37515087
19.37524449
19.37534084
19.37544044
19.37554382
19.37565151
19.37576405
19.37588201
19.37600595
19.37613645
19.37627411
19.37641951
19.37657328
19.37673603
19.37690837
19.37709093
19.37728433
19.37748917
19.37770605
19.37793554
19.37817819
19.3784345
19.37870493
19.37898986
19.37928962
19.37960443
19.37993443
19.38027961
19.38063984
19.38101483
19.3814041
19.381807
19.38222264
19.38264993
19.3830875
19.38353375
19.38398681
19.38444453
19.3849045
19.38536401
19.38582015
19.38626972
19.38670936
19.38713549
19.38754444
19.38793244
19.38829567
19.3886304
19.38893295
19.38919985
19.38942785
19.38961399
19.38975572
19.38985087
19.3898978
19.38989525
19.38984258
19.38973971
19.38958706
19.38938557
19.38913665
19.38884217
19.38850439
19.3881259
19.38770956
19.38725842
19.38677566
19.38626454
19.38572829
19.38517009
19.384593
19.38399991
19.38339353
19.38277632
19.38215048
19.38151798
19.38088049
19.38023942
19.37959593
19.3789509
19.37830502
19.37765875
19.37701237
19.37636602
19.37571968
19.37507327
19.37480562
19.37491748
19.37503025
19.37514458
19.37526111
19.37538048
19.37550334
19.37563034
19.37576216
19.37589947
19.37604298
19.37619339
19.37635144
19.37651785
19.37669339
19.37687882
19.37707492
19.37728247
19.37750227
19.37773511
19.37798178
19.37824305
19.3785197
19.37881244
19.37912198
19.37944897
19.37979399
19.38015754
19.38054003
19.38094177
19.38136291
19.38180348
19.38226329
19.38274199
19.38323898
19.38375341
19.38428419
19.38482989
19.38538881
19.38595889
19.38653775
19.38712264
19.38771048
19.38829784
19.38888096
19.38945579
19.39001799
19.39056301
19.39108613
19.39158251
19.3920473
19.39247567
19.39286293
19.39320461
19.39349653
19.39373493
19.3939165
19.39403847
19.39409871
19.39409564
19.39402842
19.39389696
19.39370179
19.39344411
19.39312576
19.39274914
19.39231714
19.3918331
19.39130068
19.39072382
19.39010659
19.38945316
19.38876769
19.38805425
19.38731677
19.38655894
19.38578422
19.38499576
19.3841964
19.38338861
19.38257455
19.38175602
19.38093446
19.38011104
19.3792866
19.37846174
19.3776368
19.37681195
19.3759872
19.37516243
19.37481728
19.37495257
19.37508897
19.37522727
19.37536822
19.37551261
19.37566121
19.37581484
19.37597429
19.37614039
19.37631399
19.37649594
19.37668713
19.37688845
19.37710082
19.37732515
19.3775624
19.37781351
19.37807945
19.37836118
19.37865966
19.37897583
19.37931061
19.3796649
19.38003954
19.38043532
19.38085295
19.38129306
19.38175614
19.38224256
19.38275253
19.38328607
19.38384298
19.38442283
19.38502492
19.38564823
19.38629142
19.3869528
19.3876303
19.38832143
19.38902333
19.38973266
19.39044568
19.39115825
19.39186581
19.39256343
19.39324584
19.39390753
19.39454274
19.3951456
19.39571019
19.39623063
19.39670121
19.39711649
19.39747137
19.39776127
19.39798213
19.39813061
19.39820409
19.39820064
19.39811924
19.39795979
19.39772294
19.39741016
19.39702369
19.39656646
19.39604202
19.39545443
19.39480817
19.39410803
19.39335899
19.39256613
19.3917345
19.39086906
19.38997459
19.38905559
19.38811625
19.38716041
19.38619149
19.38521251
19.38422606
19.38323431
19.38223904
19.38124162
19.38024307
19.37924411
19.37824515
19.37724638
19.3762478
19.37524928
19.37482852
19.37498641
19.37514561
19.37530702
19.37547153
19.37564005
19.3758135
19.3759928
19.37617891
19.37637278
19.37657541
19.3767878
19.37701097
19.37724597
19.37749388
19.37775576
19.37803273
19.3783259
19.37863639
19.37896533
19.37931384
19.37968303
19.38007398
19.38048774
19.38092529
19.38138757
19.38187542
19.38238956
19.3829306
19.38349897
19.38409492
19.38471849
19.38536946
19.38604734
19.3867513
19.3874802
19.38823246
19.38900613
19.38979879
19.39060755
19.39142905
19.39225941
19.39309427
19.39392876
19.39475755
19.39557486
19.39637453
19.39715007
19.39789473
19.39860161
19.39926376
19.39987426
19.40042639
19.40091374
19.40133032
19.40167071
19.40193017
19.40210471
19.40219129
19.40218762
19.40209251
19.40190582
19.40162835
19.40126182
19.40080889
19.40027302
19.39965838
19.39896978
19.39821249
19.39739216
19.39651465
19.39558593
19.39461197
19.39359859
19.39255139
19.39147567
19.39037634
19.38925788
19.38812432
19.38697918
19.38582549
19.38466579
19.38350212
19.3823361
19.3811689
19.38000134
19.3788339
19.37766678
19.37649997
19.37533332
19.37483928
19.3750188
19.37519982
19.37538335
19.3755704
19.37576202
19.37595925
19.37616313
19.37637476
19.37659522
19.37682565
19.37706717
19.37732097
19.37758822
19.37787016
19.37816801
19.37848303
19.37881648
19.37916966
19.37954385
19.37994031
19.38036033
19.38080513
19.38127591
19.38177382
19.38229991
19.38285514
19.38344036
19.38405625
19.38470334
19.38538191
19.38609203
19.38683345
19.38760564
19.38840767
19.38923823
19.39009558
19.39097749
19.39188121
19.39280348
19.39374046
19.39468775
19.39564038
19.3965928
19.39753892
19.39847215
19.39938545
19.40027139
19.40112225
19.40193013
19.40268705
19.40338509
19.40401655
19.40457405
19.40505073
19.40544036
19.40573749
19.40593754
19.40603702
19.4060333
19.405925
19.405712
19.40539519
19.40497658
19.40445922
19.40384709
19.40314501
19.40235849
19.40149362
19.40055686
19.39955495
19.39849477
19.39738312
19.3962267
19.39503191
19.39380482
19.39255104
19.39127571
19.38998339
19.38867811
19.38736332
19.3860419
19.38471616
19.38338794
19.38205855
19.38072891
19.37939953
19.37807065
19.37674222
19.37541404
19.37484949
19.37504954
19.37525126
19.37545578
19.37566424
19.37587778
19.37609757
19.37632479
19.37656063
19.37680634
19.37706315
19.37733233
19.37761521
19.37791309
19.37822735
19.37855935
19.37891051
19.37928224
19.37967598
19.38009316
19.3805352
19.38100354
19.38149955
19.38202457
19.38257988
19.38316668
19.38378606
19.38443895
19.38512614
19.38584823
19.38660555
19.38739819
19.3882259
19.38908809
19.38998375
19.39091145
19.39186924
19.39285465
19.39386465
19.39489559
19.39594321
19.3970026
19.3980682
19.39913382
19.40019264
19.40123729
19.40225988
19.40325207
19.40420522
19.40511044
19.40595876
19.40674129
19.40744935
19.40807465
19.40860945
19.40904674
19.40938038
19.40960523
19.40971732
19.40971372
19.40959286
19.40935462
19.40900001
19.4085313
19.40795194
19.40726643
19.4064802
19.40559949
19.40463113
19.40358244
19.402461
19.40127452
19.4000307
19.39873703
19.39740072
19.39602856
19.39462686
19.39320135
19.39175715
19.39029875
19.38883001
19.38735411
19.38587365
19.38439063
19.38290652
19.38142231
19.37993856
19.37845549
19.37697303
19.37549095
19.37485908
19.37507844
19.37529962
19.37552387
19.37575245
19.3759866
19.37622761
19.37647676
19.37673539
19.37700483
19.37728645
19.37758165
19.37789187
19.37821857
19.37856323
19.37892737
19.37931254
19.37972029
19.38015221
19.38060986
19.38109482
19.38160867
19.38215291
19.38272904
19.38333846
19.3839825
19.38466235
19.38537909
19.38613356
19.38692645
19.38775814
19.38862875
19.38953802
19.39048532
19.39146957
19.39248922
19.39354214
19.39462565
19.39573643
19.3968705
19.39802317
19.39918906
19.40036207
19.40153538
19.4027015
19.4038523
19.40497909
19.40607266
19.40712346
19.40812167
19.40905738
19.40992074
19.41070213
19.41139239
19.41198292
19.41246597
19.41283471
19.41308344
19.41320777
19.41320444
19.41307173
19.41280949
19.41241887
19.41190239
19.41126389
19.41050838
19.40964189
19.40867134
19.40760433
19.40644897
19.40521366
19.40390695
19.40253735
19.40111316
19.39964234
19.3981324
19.39659028
19.3950223
19.3934341
19.39183062
19.39021607
19.38859397
19.38696712
19.38533773
19.38370737
19.3820771
19.38044752
19.37881884
19.37719095
19.37556356
19.37486801
19.37510532
19.3753446
19.37558721
19.3758345
19.37608782
19.37634856
19.37661813
19.37689794
19.37718946
19.37749416
19.37781358
19.37814925
19.37850276
19.37887572
19.37926978
19.37968661
19.3801279
19.38059537
19.38109072
19.38161567
19.38217192
19.38276112
19.38338489
19.38404477
19.3847422
19.38547849
19.38625481
19.38707211
19.38793113
19.38883232
19.38977581
19.39076136
19.39178831
19.39285551
19.39396128
19.39510337
19.39627888
19.39748423
19.39871512
19.39996649
19.40123252
19.40250658
19.40378129
19.40504851
19.4062994
19.4075245
19.40871379
19.40985685
19.41094299
19.41196139
19.41290128
19.41375216
19.41450401
19.41514744
19.41567395
19.41607607
19.41634757
19.41648365
19.41648074
19.41633695
19.41605214
19.41562757
19.41506602
19.41437169
19.41355008
19.41260783
19.41155249
19.4103924
19.40913643
19.40779377
19.40637378
19.40488575
19.40333873
19.4017414
19.40010194
19.39842791
19.39672619
19.39500289
19.39326338
19.3915122
19.38975315
19.38798928
19.38622291
19.38445576
19.38268894
19.38092305
19.37915829
19.37739452
19.37563138
19.37487621
19.37513001
19.37538592
19.37564539
19.37590987
19.3761808
19.37645968
19.376748
19.37704728
19.37735909
19.37768501
19.37802667
19.37838573
19.37876389
19.37916287
19.37958443
19.38003038
19.38050252
19.38100269
19.38153273
19.38209447
19.38268974
19.38332033
19.38398797
19.38469433
19.38544094
19.38622925
19.3870605
19.38793574
19.38885577
19.3898211
19.39083189
19.39188791
19.39298846
19.39413235
19.39531781
19.39654244
19.39780316
19.39909616
19.40041685
19.40175982
19.40311883
19.4044868
19.4058558
19.40721709
19.40856118
19.40987789
19.41115644
19.4123856
19.41355385
19.4146495
19.41566096
19.41657687
19.4173864
19.4180794
19.41864667
19.41908015
19.4193731
19.4195203
19.41951792
19.41936392
19.41905814
19.41860196
19.41799839
19.41725201
19.41636878
19.41535587
19.4142215
19.41297467
19.41162498
19.41018239
19.40865698
19.40705879
19.4053976
19.40368275
19.40192306
19.40012665
19.39830092
19.39645244
19.39458694
19.3927093
19.39082357
19.388933
19.38704005
19.38514653
19.3832536
19.38136187
19.37947152
19.37758236
19.37569396
19.37488363
19.37515236
19.37542332
19.37569806
19.3759781
19.37626498
19.37656027
19.37686557
19.37718248
19.37751266
19.37785779
19.3782196
19.37859984
19.37900032
19.37942287
19.37986936
19.38034169
19.38084178
19.38137159
19.38193307
19.38252818
19.38315885
19.38382698
19.38453442
19.38528295
19.38607422
19.38690975
19.3877909
19.38871878
19.38969428
19.39071793
19.39178995
19.3929101
19.39407768
19.39529144
19.39654954
19.39784944
19.39918792
19.40056095
19.40196367
19.40339038
19.40483446
19.40628839
19.40774375
19.40919127
19.41062085
19.41202164
19.41338217
19.41469047
19.41593423
19.41710099
19.41817836
19.41915419
19.42001691
19.42075566
19.42136059
19.42182308
19.4221359
19.42229348
19.42229172
19.42212843
19.42180345
19.42131827
19.42067614
19.41988195
19.41894212
19.41786433
19.41665739
19.41533094
19.41389526
19.41236101
19.41073897
19.40903987
19.40727413
19.40545174
19.40358209
19.40167383
19.39973483
19.39777206
19.39579161
19.39379866
19.39179747
19.38979148
19.38778328
19.38577474
19.38376706
19.38176086
19.3797563
19.37775312
19.37575085
19.37489023
19.37517223
19.37545658
19.37574489
19.37603876
19.37633982
19.37664971
19.3769701
19.37730269
19.37764921
19.37801143
19.37839116
19.37879025
19.37921059
19.37965411
19.38012277
19.38061857
19.38114355
19.38169974
19.38228922
19.38291403
19.38357622
19.38427779
19.3850207
19.38580682
19.3866379
19.38751555
19.3884412
19.38941606
19.39044106
19.3915168
19.39264351
19.39382098
19.39504848
19.39632474
19.39764784
19.39901515
19.40042329
19.40186805
19.40334436
19.40484621
19.40636667
19.40789783
19.40943085
19.41095595
19.41246248
19.41393902
19.41537344
19.41675312
19.41806504
19.41929602
19.42043294
19.42146296
19.4223738
19.42315397
19.42379304
19.42428184
19.42461273
19.4247798
19.42477871
19.42460712
19.42426489
19.42375361
19.42307672
19.42223945
19.42124859
19.42011232
19.41883998
19.41744181
19.4159287
19.41431194
19.41260296
19.4108131
19.4089534
19.40703441
19.40506604
19.40305742
19.40101684
19.39895165
19.39686824
19.39477205
19.39266755
19.39055832
19.38844707
19.38633573
19.38422553
19.3821171
19.38001054
19.37790557
19.37580164
19.37489597
19.3751895
19.37548548
19.37578558
19.37609148
19.37640487
19.37672744
19.37706095
19.37740717
19.37776789
19.37814496
19.37854027
19.37895574
19.37939335
19.3798551
19.38034305
19.38085928
19.38140589
19.38198505
19.38259888
19.38324954
19.38393917
19.38466986
19.38544365
19.38626251
19.38712826
19.38804262
19.38900707
19.39002288
19.39109106
19.39221224
19.39338669
19.3946142
19.39589406
19.39722493
19.39860486
19.40003113
19.40150023
19.4030078
19.40454857
19.40611629
19.40770374
19.40930268
19.41090388
19.41249713
19.41407131
19.41561446
19.41711393
19.41855646
19.41992843
19.42121602
19.42240547
19.42348332
19.42443666
19.42525344
19.42592269
19.4264348
19.42678171
19.42695723
19.42695681
19.42677799
19.42642062
19.42588638
19.42517892
19.42430373
19.42326797
19.42208024
19.42075036
19.41928909
19.41770789
19.41601861
19.41423324
19.41236368
19.41042151
19.40841777
19.40636284
19.40426627
19.40213671
19.39998185
19.39780834
19.39562186
19.39342704
19.39122759
19.38902633
19.38682523
19.38462554
19.38242788
19.38023233
19.37803856
19.37584593
19.3749008
19.37520406
19.37550985
19.37581989
19.37613593
19.3764597
19.37679298
19.37713755
19.37749525
19.37786795
19.37825755
19.378666
19.37909529
19.37954746
19.3800246
19.38052881
19.38106226
19.38162715
19.38222567
19.38286006
19.38353255
19.38424534
19.38500062
19.38580049
19.386647
19.38754206
19.38848743
19.38948467
19.39053513
19.39163982
19.39279945
19.3940143
19.39528418
19.39660837
19.39798552
19.39941362
19.40088988
19.4024107
19.40397158
19.40556708
19.40719075
19.40883514
19.41049171
19.41215092
19.41380219
19.41543398
19.41703391
19.41858882
19.42008496
19.42150818
19.42284412
19.42407845
19.42519718
19.42618687
19.42703497
19.42773007
19.42826214
19.42862281
19.42880562
19.42880582
19.42862088
19.42825063
19.42769685
19.42696333
19.42605582
19.42498177
19.42375016
19.42237123
19.42085619
19.41921698
19.41746594
19.41561554
19.41367816
19.41166584
19.40959004
19.40746155
19.40529027
19.40308518
19.40085422
19.39860429
19.39634124
19.39406988
19.391794
19.38951651
19.38723941
19.38496397
19.3826908
19.38041995
19.37815105
19.37588341
19.3749047
19.37521582
19.37552952
19.3758476
19.37617183
19.37650399
19.37684591
19.37719941
19.3775664
19.37794877
19.37834848
19.37876755
19.379208
19.37967195
19.38016151
19.38067887
19.38122624
19.38180588
19.38242007
19.38307108
19.38376121
19.38449273
19.38526789
19.38608886
19.38695774
19.38787651
19.38884698
19.38987077
19.39094927
19.39208354
19.39327431
19.3945219
19.39582612
19.39718626
19.39860094
19.40006811
19.40158495
19.40314775
19.40475193
19.4063919
19.40806107
19.40975175
19.41145522
19.41316164
19.41486014
19.41653888
19.41818507
19.41978519
19.42132507
19.42279011
19.42416551
19.4254365
19.42658863
19.42760803
19.42848176
19.429198
19.42974643
19.43011838
19.43030718
19.43030794
19.43011803
19.42973731
19.4291676
19.42841284
19.42747897
19.4263737
19.42510632
19.4236874
19.42212855
19.42044207
19.41864071
19.41673735
19.41474477
19.41267535
19.41054095
19.40835264
19.40612064
19.40385418
19.40156142
19.39924945
19.39692427
19.3945908
19.39225294
19.38991363
19.38757493
19.38523811
19.38290376
19.38057192
19.37824215
19.37591375
19.37490765
19.3752247
19.37554439
19.37586854
19.37619895
19.37653745
19.37688589
19.37724615
19.37762015
19.37800983
19.37841719
19.37884428
19.37929317
19.37976601
19.38026496
19.38079226
19.38135016
19.38194096
19.38256698
19.38323055
19.38393403
19.38467972
19.38546991
19.38630685
19.38719265
19.38812936
19.38911882
19.39016271
19.39126243
19.3924191
19.39363346
19.39490585
19.39623609
19.39762347
19.3990666
19.40056342
19.40211103
19.40370569
19.40534273
19.40701647
19.40872018
19.41044604
19.41218514
19.41392745
19.41566189
19.41737633
19.41905774
19.42069227
19.42226546
19.42376236
19.42516784
19.42646678
19.42764438
19.42868646
19.42957973
19.43031213
19.43087305
19.43125362
19.43144702
19.43144822
19.43125456
19.43086588
19.43028405
19.42951312
19.42855918
19.42743014
19.42613553
19.42468617
19.42309396
19.42137151
19.41953187
19.41758824
19.41555367
19.41344087
19.41126192
19.40902818
19.40675007
19.40443701
19.40209735
19.39973831
19.397366
19.39498544
19.39260059
19.39021444
19.38782906
19.38544573
19.38306505
19.380687
19.37831115
19.37593673
19.37490963
19.37523065
19.37555435
19.37588257
19.37621713
19.37655988
19.37691269
19.37727748
19.37765617
19.37805075
19.37846324
19.3788957
19.37935025
19.37982905
19.3803343
19.38086826
19.38143321
19.38203149
19.38266545
19.38333746
19.38404987
19.38480507
19.38560535
19.38645298
19.38735015
19.38829889
19.3893011
19.39035847
19.39147244
19.39264414
19.39387434
19.39516338
19.3965111
19.39791677
19.39937902
19.40089575
19.40246404
19.40408013
19.40573926
19.40743571
19.40916266
19.41091219
19.41267528
19.41444176
19.41620038
19.41793888
19.41964401
19.42130174
19.42289738
19.42441577
19.42584153
19.42715932
19.42835411
19.42941149
19.43031796
19.43106127
19.43163063
19.43201704
19.43221355
19.43221507
19.43201888
19.43162484
19.43103484
19.43025302
19.42928556
19.4281405
19.42682753
19.42535766
19.42374297
19.42199629
19.42013087
19.41816011
19.41609728
19.41395526
19.41174635
19.40948203
19.4071729
19.4048285
19.4024573
19.40006662
19.39766264
19.39525044
19.39283403
19.39041641
19.38799968
19.38558512
19.38317332
19.38076426
19.37835747
19.37595216
19.37491062
19.37523364
19.37555935
19.3758896
19.37622624
19.37657113
19.37692614
19.37729319
19.37767424
19.37807128
19.37848634
19.3789215
19.37937888
19.37986067
19.38036908
19.38090638
19.38147488
19.38207691
19.38271485
19.38339108
19.38410799
19.38486795
19.38567329
19.3865263
19.38742916
19.38838394
19.38939255
19.39045669
19.39157781
19.39275706
19.39399521
19.39529261
19.39664911
19.39806398
19.39953583
19.40106256
19.40264125
19.40426809
19.40593834
19.4076462
19.40938483
19.41114626
19.41292141
19.41470004
19.41647084
19.41822144
19.41993851
19.42160792
19.42321485
19.42474406
19.42618004
19.42750732
19.42871077
19.42977585
19.43068898
19.43143778
19.43201139
19.43240074
19.43259882
19.43260051
19.43240306
19.43200632
19.43141222
19.43062491
19.42965064
19.42849752
19.42717531
19.42569511
19.42406912
19.42231024
19.42043185
19.41844744
19.4163704
19.41421369
19.4119897
19.40971001
19.40738529
19.40502514
19.40263809
19.40023151
19.39781162
19.39538352
19.39295125
19.39051782
19.38808535
19.38565511
19.38322768
19.38080305
19.37838072
19.37595991
19.37491062
19.37523364
19.37555935
19.3758896
19.37622624
19.37657113
19.37692614
19.37729319
19.37767424
19.37807128
19.37848634
19.3789215
19.37937888
19.37986067
19.38036908
19.38090638
19.38147488
19.38207691
19.38271485
19.38339108
19.38410799
19.38486795
19.38567329
19.3865263
19.38742916
19.38838394
19.38939255
19.39045669
19.39157781
19.39275706
19.39399521
19.39529261
19.39664911
19.39806398
19.39953583
19.40106256
19.40264125
19.40426809
19.40593834
19.4076462
19.40938483
19.41114626
19.41292141
19.41470005
19.41647084
19.41822144
19.41993851
19.42160792
19.42321485
19.42474406
19.42618004
19.42750732
19.42871077
19.42977585
19.43068898
19.43143778
19.43201139
19.43240074
19.43259882
19.43260051
19.43240306
19.43200632
19.43141222
19.43062491
19.42965064
19.42849752
19.42717531
19.42569511
19.42406912
19.42231024
19.42043185
19.41844744
19.4163704
19.41421369
19.4119897
19.40971001
19.40738529
19.40502514
19.40263809
19.40023151
19.39781162
19.39538352
19.39295125
19.39051782
19.38808535
19.38565511
19.38322768
19.38080305
19.37838072
19.37595991
19.37490963
19.37523065
19.37555435
19.37588257
19.37621713
19.37655988
19.37691269
19.37727748
19.37765617
19.37805075
19.37846324
19.3788957
19.37935025
19.37982905
19.3803343
19.38086826
19.38143321
19.38203149
19.38266545
19.38333746
19.38404987
19.38480507
19.38560535
19.38645298
19.38735015
19.38829889
19.3893011
19.39035847
19.39147244
19.39264414
19.39387434
19.39516338
19.3965111
19.39791677
19.39937902
19.40089575
19.40246404
19.40408013
19.40573926
19.40743571
19.40916266
19.41091219
19.41267528
19.41444176
19.41620038
19.41793888
19.41964401
19.42130174
19.42289738
19.42441577
19.42584153
19.42715932
19.42835411
19.42941149
19.43031797
19.43106127
19.43163063
19.43201704
19.43221355
19.43221507
19.43201888
19.43162484
19.43103484
19.43025302
19.42928556
19.4281405
19.42682752
19.42535765
19.42374297
19.42199628
19.42013086
19.4181601
19.41609728
19.41395526
19.41174634
19.40948203
19.4071729
19.4048285
19.4024573
19.40006662
19.39766264
19.39525044
19.39283402
19.3904164
19.38799968
19.38558512
19.38317332
19.38076426
19.37835747
19.37595216
19.37490765
19.3752247
19.37554439
19.37586854
19.37619895
19.37653745
19.37688589
19.37724615
19.37762015
19.37800983
19.37841719
19.37884428
19.37929317
19.37976601
19.38026496
19.38079226
19.38135016
19.38194096
19.38256698
19.38323055
19.38393403
19.38467972
19.38546991
19.38630685
19.38719265
19.38812936
19.38911882
19.39016271
19.39126243
19.3924191
19.39363346
19.39490585
19.39623609
19.39762347
19.39906661
19.40056342
19.40211103
19.40370569
19.40534273
19.40701647
19.40872018
19.41044604
19.41218514
19.41392746
19.41566189
19.41737633
19.41905774
19.42069228
19.42226546
19.42376237
19.42516784
19.42646678
19.42764438
19.42868646
19.42957974
19.43031213
19.43087305
19.43125363
19.43144702
19.43144823
19.43125457
19.43086588
19.43028405
19.42951312
19.42855918
19.42743014
19.42613552
19.42468617
19.42309395
19.4213715
19.41953186
19.41758823
19.41555367
19.41344086
19.41126192
19.40902817
19.40675006
19.404437
19.40209734
19.3997383
19.397366
19.39498544
19.39260059
19.39021444
19.38782906
19.38544573
19.38306504
19.380687
19.37831115
19.37593673
19.3749047
19.37521582
19.37552952
19.3758476
19.37617183
19.37650399
19.3768459
19.37719941
19.37756639
19.37794877
19.37834848
19.37876755
19.379208
19.37967195
19.38016151
19.38067887
19.38122624
19.38180588
19.38242007
19.38307108
19.38376121
19.38449273
19.38526789
19.38608886
19.38695775
19.38787651
19.38884698
19.38987077
19.39094927
19.39208354
19.39327431
19.3945219
19.39582612
19.39718626
19.39860094
19.40006812
19.40158495
19.40314776
19.40475194
19.40639191
19.40806107
19.40975176
19.41145522
19.41316164
19.41486015
19.41653888
19.41818508
19.41978519
19.42132507
19.42279011
19.42416551
19.4254365
19.42658863
19.42760804
19.42848176
19.42919801
19.42974643
19.43011838
19.43030718
19.43030794
19.43011804
19.42973732
19.4291676
19.42841284
19.42747897
19.4263737
19.42510631
19.4236874
19.42212854
19.42044206
19.4186407
19.41673734
19.41474476
19.41267534
19.41054094
19.40835263
19.40612064
19.40385417
19.40156141
19.39924944
19.39692426
19.3945908
19.39225294
19.38991363
19.38757493
19.38523811
19.38290376
19.38057192
19.37824215
19.37591375
19.3749008
19.37520406
19.37550984
19.37581989
19.37613593
19.3764597
19.37679298
19.37713755
19.37749525
19.37786795
19.37825755
19.378666
19.37909529
19.37954746
19.3800246
19.38052881
19.38106226
19.38162715
19.38222567
19.38286006
19.38353255
19.38424534
19.38500062
19.38580049
19.386647
19.38754206
19.38848743
19.38948467
19.39053513
19.39163982
19.39279945
19.3940143
19.39528419
19.39660837
19.39798553
19.39941362
19.40088988
19.4024107
19.40397158
19.40556708
19.40719076
19.40883514
19.41049172
19.41215093
19.41380219
19.41543399
19.41703392
19.41858883
19.42008497
19.42150819
19.42284412
19.42407846
19.42519718
19.42618688
19.42703498
19.42773007
19.42826215
19.42862282
19.42880562
19.42880582
19.42862088
19.42825064
19.42769685
19.42696333
19.42605581
19.42498176
19.42375015
19.42237122
19.42085619
19.41921698
19.41746593
19.41561553
19.41367815
19.41166583
19.40959003
19.40746154
19.40529026
19.40308517
19.40085421
19.39860429
19.39634124
19.39406987
19.391794
19.3895165
19.3872394
19.38496397
19.3826908
19.38041995
19.37815105
19.3758834
19.37489597
19.3751895
19.37548548
19.37578558
19.37609148
19.37640487
19.37672744
19.37706095
19.37740716
19.37776789
19.37814496
19.37854027
19.37895574
19.37939335
19.3798551
19.38034305
19.38085927
19.38140589
19.38198505
19.38259888
19.38324954
19.38393917
19.38466986
19.38544365
19.38626251
19.38712826
19.38804262
19.38900707
19.39002289
19.39109106
19.39221224
19.39338669
19.39461421
19.39589406
19.39722494
19.39860486
19.40003113
19.40150023
19.40300781
19.40454857
19.40611629
19.40770374
19.40930268
19.41090388
19.41249713
19.41407131
19.41561447
19.41711393
19.41855646
19.41992843
19.42121603
19.42240548
19.42348333
19.42443667
19.42525345
19.4259227
19.4264348
19.42678172
19.42695724
19.42695681
19.42677799
19.42642062
19.42588638
19.42517892
19.42430373
19.42326797
19.42208023
19.42075035
19.41928908
19.41770788
19.4160186
19.41423323
19.41236367
19.4104215
19.40841776
19.40636282
19.40426626
19.4021367
19.39998184
19.39780834
19.39562185
19.39342703
19.39122759
19.38902633
19.38682523
19.38462554
19.38242788
19.38023233
19.37803855
19.37584593
19.37489023
19.37517223
19.37545658
19.37574489
19.37603876
19.37633982
19.37664971
19.3769701
19.37730269
19.37764921
19.37801143
19.37839116
19.37879025
19.37921059
19.3796541
19.38012277
19.38061857
19.38114355
19.38169974
19.38228922
19.38291403
19.38357622
19.38427779
19.3850207
19.38580682
19.3866379
19.38751555
19.3884412
19.38941606
19.39044106
19.3915168
19.39264351
19.39382098
19.39504849
19.39632475
19.39764784
19.39901515
19.40042329
19.40186805
19.40334436
19.40484622
19.40636668
19.40789784
19.40943086
19.41095596
19.41246249
19.41393902
19.41537345
19.41675313
19.41806505
19.41929603
19.42043294
19.42146297
19.42237381
19.42315398
19.42379305
19.42428185
19.42461274
19.42477981
19.42477871
19.42460713
19.4242649
19.42375361
19.42307672
19.42223945
19.42124859
19.42011232
19.41883998
19.4174418
19.41592869
19.41431193
19.41260295
19.41081309
19.40895339
19.4070344
19.40506603
19.40305741
19.40101683
19.39895164
19.39686823
19.39477204
19.39266754
19.39055831
19.38844706
19.38633572
19.38422553
19.3821171
19.38001054
19.37790557
19.37580164
19.37488363
19.37515236
19.37542332
19.37569806
19.3759781
19.37626498
19.37656027
19.37686556
19.37718248
19.37751265
19.37785779
19.3782196
19.37859984
19.37900032
19.37942287
19.37986936
19.38034169