/*--------------------------------*- C++ -*----------------------------------*\
| =========                 |                                                 |
| \\      /  F ield         | OpenFOAM: The Open Source CFD Toolbox           |
|  \\    /   O peration     | Version:  2312                                  |
|   \\  /    A nd           | Website:  www.openfoam.com                      |
|    \\/     M anipulation  |                                                 |
\*---------------------------------------------------------------------------*/
FoamFile
{
    version     2.0;
    format      ascii;
    arch        "LSB;label=32;scalar=64";
    class       surfaceVectorField;
    location    "0.18/beam";
    object      Gamma;
}
// * * * * * * * * * * * * * * * * * * * * * * * * * * * * * * * * * * * * * //

dimensions      [0 0 0 0 0 0 0];

oriented        oriented;

internalField   nonuniform List<vector> 
59
(
(0.001519206162 -1.148280241e-16 -1.872301534e-08)
(0.001519206492 -1.122956878e-16 -1.936890007e-08)
(0.001519207041 -1.080975872e-16 -2.042872668e-08)
(0.001519207802 -1.022682315e-16 -2.187768375e-08)
(0.001519208772 -9.485668879e-17 -2.368119457e-08)
(0.001519209942 -8.59280034e-17 -2.579480758e-08)
(0.001519211304 -7.556234366e-17 -2.816456705e-08)
(0.001519212849 -6.385829622e-17 -3.072804907e-08)
(0.001519214567 -5.093285534e-17 -3.341441753e-08)
(0.001519216446 -3.69224732e-17 -3.614577506e-08)
(0.001519218475 -2.198580622e-17 -3.883900434e-08)
(0.001519220645 -6.306390622e-18 -4.140701384e-08)
(0.001519222945 9.907657768e-18 -4.376191776e-08)
(0.001519225367 2.64209259e-17 -4.581647301e-08)
(0.001519227904 4.296834761e-17 -4.74880795e-08)
(0.001519230552 5.924915229e-17 -4.870080227e-08)
(0.001519233309 7.493787344e-17 -4.938896375e-08)
(0.001519236174 8.967506184e-17 -4.949936662e-08)
(0.001519239151 1.030616563e-16 -4.899381979e-08)
(0.001519242244 1.146764752e-16 -4.785011257e-08)
(0.001519245463 1.240732175e-16 -4.606307689e-08)
(0.001519248814 1.307919596e-16 -4.36438213e-08)
(0.00151925231 1.343788602e-16 -4.062046746e-08)
(0.001519255961 1.343917398e-16 -3.702978004e-08)
(0.001519259777 1.304377764e-16 -3.292304803e-08)
(0.001519263769 1.221944207e-16 -2.835279463e-08)
(0.001519267944 1.0945231e-16 -2.337834706e-08)
(0.00151927231 9.214020669e-17 -1.805256792e-08)
(0.001519276869 7.039031635e-17 -1.24303289e-08)
(0.001519281621 4.448898066e-17 -6.556398651e-09)
(0.001519286561 1.50725873e-17 -4.791479862e-10)
(0.001519291684 -1.697817417e-17 5.757473338e-09)
(0.001519296976 -5.053896256e-17 1.209341442e-08)
(0.001519302425 -8.420826665e-17 1.8455025e-08)
(0.001519308007 -1.163152958e-16 2.472821666e-08)
(0.001519313703 -1.450467743e-16 3.075699466e-08)
(0.001519319484 -1.684610404e-16 3.631564595e-08)
(0.001519325322 -1.846525675e-16 4.111071874e-08)
(0.001519331182 -1.918273389e-16 4.476577377e-08)
(0.001519337034 -1.884752071e-16 4.684222063e-08)
(0.001519342839 -1.735036419e-16 4.686202832e-08)
(0.001519348567 -1.463809246e-16 4.437023783e-08)
(0.001519354182 -1.073157242e-16 3.902501739e-08)
(0.00151935966 -5.733503892e-17 3.071669237e-08)
(0.001519364977 1.522915884e-18 1.973154487e-08)
(0.001519370128 6.625255082e-17 6.891449006e-09)
(0.001519375115 1.327818723e-16 -6.295714084e-09)
(0.001519379967 1.962774122e-16 -1.763070695e-08)
(0.001519384729 2.513931853e-16 -2.433223217e-08)
(0.001519389477 2.930678009e-16 -2.34496489e-08)
(0.001519394299 3.173597392e-16 -1.253836545e-08)
(0.001519399293 3.22628544e-16 9.398256767e-09)
(0.001519404541 3.102969205e-16 4.087852751e-08)
(0.001519410101 2.845541928e-16 7.732253699e-08)
(0.001519415986 2.49510031e-16 1.112053406e-07)
(0.001519422185 2.01464481e-16 1.336397158e-07)
(0.001519428666 1.126420193e-16 1.367476242e-07)
(0.001519435398 -1.02426297e-16 1.149234179e-07)
(0.001519442348 -6.603954045e-16 5.983284355e-08)
)
;

boundaryField
{
    left
    {
        type            calculated;
        value           uniform (-0.001519206051 -4.505654504e-14 1.85060279e-08);
    }
    right
    {
        type            calculated;
        value           uniform (0.001519449492 -4.726110015e-14 -5.919274143e-08);
    }
    beam
    {
        type            empty;
        value           nonuniform List<vector> 0();
    }
}


// ************************************************************************* //
