/*--------------------------------*- C++ -*----------------------------------*\
| =========                 |                                                 |
| \\      /  F ield         | OpenFOAM: The Open Source CFD Toolbox           |
|  \\    /   O peration     | Version:  2312                                  |
|   \\  /    A nd           | Website:  www.openfoam.com                      |
|    \\/     M anipulation  |                                                 |
\*---------------------------------------------------------------------------*/
FoamFile
{
    version     2.0;
    format      ascii;
    arch        "LSB;label=32;scalar=64";
    class       surfaceVectorField;
    location    "0.18/beam";
    object      K;
}
// * * * * * * * * * * * * * * * * * * * * * * * * * * * * * * * * * * * * * //

dimensions      [0 -1 0 0 0 0 0];

oriented        oriented;

internalField   nonuniform List<vector> 
59
(
(4.181064409e-17 -0.0002063427562 1.277653586e-12)
(8.358259456e-17 -0.0004174681716 2.536581441e-12)
(1.252729775e-16 -0.0006380483986 3.758203101e-12)
(1.668307471e-16 -0.0008725349051 4.924243864e-12)
(2.081928878e-16 -0.001125049981 6.016892763e-12)
(2.492797935e-16 -0.001399277877 7.018969715e-12)
(2.899920562e-16 -0.001698357387 7.914100717e-12)
(3.302091544e-16 -0.002024782223 8.686901051e-12)
(3.69783601e-16 -0.002380307449 9.323182063e-12)
(4.085428195e-16 -0.002765863705 9.810162065e-12)
(4.462870374e-16 -0.003181489123 1.013669271e-11)
(4.827864993e-16 -0.003626278364 1.029352161e-11)
(5.177873374e-16 -0.004098356174 1.027356735e-11)
(5.510092425e-16 -0.004594876535 1.007220796e-11)
(5.821505686e-16 -0.005112051966 9.687594592e-12)
(6.108776899e-16 -0.005645216192 9.121015886e-12)
(6.368583388e-16 -0.006188917952 8.377229628e-12)
(6.597386559e-16 -0.006737047034 7.464790432e-12)
(6.791299311e-16 -0.007282986637 6.396459254e-12)
(6.946430397e-16 -0.007819785143 5.189541617e-12)
(7.058722861e-16 -0.008340339177 3.866151305e-12)
(7.124053571e-16 -0.008837564676 2.453467159e-12)
(7.138587022e-16 -0.00930462225 9.836515347e-13)
(7.098352997e-16 -0.009735032548 -5.061676028e-13)
(7.000126393e-16 -0.01012277655 -1.974149668e-12)
(6.841378967e-16 -0.01046242493 -3.374531845e-12)
(6.620889473e-16 -0.01074916789 -4.658598157e-12)
(6.339071291e-16 -0.01097881801 -5.776080346e-12)
(5.998785066e-16 -0.01114778466 -6.677046585e-12)
(5.603111391e-16 -0.01125302978 -7.313883391e-12)
(5.161931179e-16 -0.01129203129 -7.64409086e-12)
(4.687455686e-16 -0.0112627788 -7.633577682e-12)
(4.191689723e-16 -0.01116383814 -7.25936559e-12)
(3.689960067e-16 -0.01099451586 -6.512477864e-12)
(3.199683715e-16 -0.01075515895 -5.400968225e-12)
(2.738159928e-16 -0.0104476108 -3.952201648e-12)
(2.32282644e-16 -0.01007583057 -2.214359925e-12)
(1.969156991e-16 -0.009646654353 -2.569493753e-13)
(1.6908837e-16 -0.009170631937 1.830012305e-12)
(1.49857922e-16 -0.008662830388 3.938193101e-12)
(1.399740214e-16 -0.008143399056 5.944828306e-12)
(1.397878288e-16 -0.00763765954 7.718149833e-12)
(1.491631743e-16 -0.007175353054 9.124593221e-12)
(1.673643913e-16 -0.006788725859 1.00374426e-11)
(1.928185959e-16 -0.006509049621 1.034696785e-11)
(2.230622393e-16 -0.00636145673 9.971395879e-12)
(2.546360419e-16 -0.006358168807 8.868184623e-12)
(2.83528083e-16 -0.006490858979 7.044157885e-12)
(3.057849667e-16 -0.006723588783 4.562575527e-12)
(3.187315593e-16 -0.006988637272 1.544398305e-12)
(3.220259978e-16 -0.007188359491 -1.839483613e-12)
(3.182759719e-16 -0.007206013425 -5.38722063e-12)
(3.121308656e-16 -0.006927523551 -8.895739073e-12)
(3.075077213e-16 -0.006272404076 -1.219310322e-11)
(3.034100208e-16 -0.005227282327 -1.515347523e-11)
(2.908045678e-16 -0.003869803118 -1.765353504e-11)
(2.543992567e-16 -0.002370598984 -1.939599238e-11)
(1.823023212e-16 -0.0009750317218 -1.945689022e-11)
(8.176054493e-17 -5.510320654e-06 -1.523997988e-11)
)
;

boundaryField
{
    left
    {
        type            calculated;
        value           uniform (-9.681150902e-33 8.588202676e-36 -7.121457778e-33);
    }
    right
    {
        type            calculated;
        value           uniform (3.087462785e-31 1.355839652e-31 1.774939288e-32);
    }
    beam
    {
        type            empty;
        value           nonuniform List<vector> 0();
    }
}


// ************************************************************************* //
