/*--------------------------------*- C++ -*----------------------------------*\
| =========                 |                                                 |
| \\      /  F ield         | OpenFOAM: The Open Source CFD Toolbox           |
|  \\    /   O peration     | Version:  2312                                  |
|   \\  /    A nd           | Website:  www.openfoam.com                      |
|    \\/     M anipulation  |                                                 |
\*---------------------------------------------------------------------------*/
FoamFile
{
    version     2.0;
    format      ascii;
    arch        "LSB;label=32;scalar=64";
    class       surfaceVectorField;
    location    "0.18/beam";
    object      M;
}
// * * * * * * * * * * * * * * * * * * * * * * * * * * * * * * * * * * * * * //

dimensions      [1 2 -2 0 0 0 0];

oriented        oriented;

internalField   nonuniform List<vector> 
59
(
(5.349824105e-17 -1.244630617e-07 7.689219936e-16)
(1.064132877e-16 -2.518109566e-07 1.526565597e-15)
(1.58165902e-16 -3.848618613e-07 2.261739916e-15)
(2.081852783e-16 -5.263008393e-07 2.963438211e-15)
(2.559133403e-16 -6.78614398e-07 3.620933055e-15)
(3.008091898e-16 -8.440248256e-07 4.22387702e-15)
(3.423536543e-16 -1.024425399e-06 4.762408222e-15)
(3.800540501e-16 -1.22132029e-06 5.227260702e-15)
(4.134496632e-16 -1.435768129e-06 5.609889009e-15)
(4.421172332e-16 -1.668330265e-06 5.902595275e-15)
(4.656771162e-16 -1.919029698e-06 6.098665621e-15)
(4.838008871e-16 -2.187320342e-06 6.192528366e-15)
(4.962196988e-16 -2.472071067e-06 6.179919711e-15)
(5.027334893e-16 -2.771565198e-06 6.05805751e-15)
(5.032216218e-16 -3.083518177e-06 5.825830173e-15)
(4.97656007e-16 -3.405115374e-06 5.484016127e-15)
(4.8611357e-16 -3.733068664e-06 5.035483492e-15)
(4.687891633e-16 -4.063692452e-06 4.485387384e-15)
(4.460118662e-16 -4.392995578e-06 3.84141646e-15)
(4.182588063e-16 -4.716784921e-06 3.113996544e-15)
(3.861661247e-16 -5.030775827e-06 2.316449379e-15)
(3.505388119e-16 -5.330695287e-06 1.46514728e-15)
(3.123495557e-16 -5.612417876e-06 5.794640086e-16)
(2.727362449e-16 -5.872035343e-06 -3.182358657e-16)
(2.329903784e-16 -6.105917095e-06 -1.20274913e-15)
(1.945275649e-16 -6.310788241e-06 -2.046509747e-15)
(1.588496513e-16 -6.483747584e-06 -2.82017219e-15)
(1.274923486e-16 -6.622269321e-06 -3.49345485e-15)
(1.01957552e-16 -6.72418764e-06 -4.036277323e-15)
(8.364465014e-17 -6.787670021e-06 -4.41995395e-15)
(7.375856097e-17 -6.811195187e-06 -4.618877406e-15)
(7.320636586e-17 -6.793550492e-06 -4.612503566e-15)
(8.252064592e-17 -6.733870871e-06 -4.386981058e-15)
(1.0178369e-16 -6.631738042e-06 -3.936891993e-15)
(1.305552333e-16 -6.487361309e-06 -3.267077654e-15)
(1.67831799e-16 -6.301852569e-06 -2.39401393e-15)
(2.120375027e-16 -6.077599935e-06 -1.346720089e-15)
(2.610504227e-16 -5.818726853e-06 -1.670666386e-16)
(3.122715858e-16 -5.531596795e-06 1.090712423e-15)
(3.627332782e-16 -5.22529801e-06 2.361341214e-15)
(4.092490952e-16 -4.911984303e-06 3.570838849e-15)
(4.485930703e-16 -4.606929307e-06 4.639789525e-15)
(4.777029485e-16 -4.328072507e-06 5.487684924e-15)
(4.938857937e-16 -4.094864396e-06 6.038134793e-15)
(4.95012695e-16 -3.926167604e-06 6.224979062e-15)
(4.796758554e-16 -3.837141639e-06 5.998905377e-15)
(4.472910376e-16 -3.83515841e-06 5.334251955e-15)
(3.981245649e-16 -3.915195264e-06 4.235126092e-15)
(3.332354304e-16 -4.055574624e-06 2.739676078e-15)
(2.543342889e-16 -4.215448162e-06 9.208615143e-16)
(1.635774158e-16 -4.335917808e-06 -1.118229745e-15)
(6.334089241e-17 -4.346566414e-06 -3.255825709e-15)
(-4.394552069e-17 -4.178585221e-06 -5.369417541e-15)
(-1.557421543e-16 -3.783426325e-06 -7.355303164e-15)
(-2.687985862e-16 -3.153023518e-06 -9.137648143e-15)
(-3.772856974e-16 -2.334211064e-06 -1.0642257e-14)
(-4.680067176e-16 -1.429912119e-06 -1.169022577e-14)
(-5.086671733e-16 -5.881254841e-07 -1.172513201e-14)
(-4.192347432e-16 -3.323748274e-09 -9.182977785e-15)
)
;

boundaryField
{
    left
    {
        type            calculated;
        value           uniform (-1.192467578e-35 5.18028312e-39 -3.557271971e-36);
    }
    right
    {
        type            calculated;
        value           uniform (3.725628004e-34 8.178234966e-35 -6.301474667e-36);
    }
    beam
    {
        type            empty;
        value           nonuniform List<vector> 0();
    }
}


// ************************************************************************* //
