/*--------------------------------*- C++ -*----------------------------------*\
| =========                 |                                                 |
| \\      /  F ield         | OpenFOAM: The Open Source CFD Toolbox           |
|  \\    /   O peration     | Version:  2312                                  |
|   \\  /    A nd           | Website:  www.openfoam.com                      |
|    \\/     M anipulation  |                                                 |
\*---------------------------------------------------------------------------*/
FoamFile
{
    version     2.0;
    format      ascii;
    arch        "LSB;label=32;scalar=64";
    class       pointVectorField;
    location    "0.18/beam";
    object      pointW;
}
// * * * * * * * * * * * * * * * * * * * * * * * * * * * * * * * * * * * * * //

dimensions      [0 1 0 0 0 0 0];

internalField   nonuniform List<vector> 
1952
(
(-0.000249984284 -3.200484913e-15 7.819156514e-06)
(-0.0002451808359 -3.13898213e-15 7.66891142e-06)
(-0.0002309554802 -2.956836165e-15 7.223962317e-06)
(-0.0002078544325 -2.661065812e-15 6.501394063e-06)
(-0.000176765762 -2.262946774e-15 5.52898421e-06)
(-0.0001388837685 -1.778091563e-15 4.344088778e-06)
(-9.56646106e-05 -1.224714774e-15 2.992254356e-06)
(-4.876949629e-05 -6.245004514e-16 1.525441192e-06)
(1.698337003e-13 0 -7.427974791e-15)
(4.876949662e-05 6.245004514e-16 -1.525441206e-06)
(9.566461091e-05 1.224714774e-15 -2.99225437e-06)
(0.0001388837688 1.778091563e-15 -4.344088791e-06)
(0.0001767657622 2.262946774e-15 -5.52898422e-06)
(0.0002078544327 2.661065812e-15 -6.501394071e-06)
(0.0002309554803 2.956836165e-15 -7.223962323e-06)
(0.000245180836 3.13898213e-15 -7.668911423e-06)
(0.000249984284 3.200484913e-15 -7.819156514e-06)
(0.0002451808359 3.13898213e-15 -7.66891142e-06)
(0.0002309554802 2.956836165e-15 -7.223962317e-06)
(0.0002078544325 2.661065812e-15 -6.501394063e-06)
(0.000176765762 2.262946774e-15 -5.52898421e-06)
(0.0001388837685 1.778091563e-15 -4.344088778e-06)
(9.56646106e-05 1.224714774e-15 -2.992254356e-06)
(4.876949629e-05 6.245004514e-16 -1.525441192e-06)
(-1.698336766e-13 0 7.427974049e-15)
(-4.876949662e-05 -6.245004514e-16 1.525441206e-06)
(-9.566461091e-05 -1.224714774e-15 2.99225437e-06)
(-0.0001388837688 -1.778091563e-15 4.344088791e-06)
(-0.0001767657622 -2.262946774e-15 5.52898422e-06)
(-0.0002078544327 -2.661065812e-15 6.501394071e-06)
(-0.0002309554803 -2.956836165e-15 7.223962323e-06)
(-0.000245180836 -3.13898213e-15 7.668911423e-06)
(-0.0002693767735 1.882591068e-12 -0.002763298932)
(-0.0002645736758 1.882652562e-12 -0.002763449155)
(-0.0002503493578 1.8828346e-12 -0.002763894039)
(-0.0002272499953 1.883129937e-12 -0.002764616502)
(-0.0001961635926 1.883528056e-12 -0.00276558877)
(-0.0001582843626 1.884012911e-12 -0.002766773492)
(-0.0001150683575 1.884566288e-12 -0.002768125129)
(-6.817666409e-05 1.885166502e-12 -0.002769591728)
(-1.941072528e-05 1.885791003e-12 -0.002771116947)
(2.935521352e-05 1.886415503e-12 -0.002772642165)
(7.624690688e-05 1.88701485e-12 -0.002774108764)
(0.000119462912 1.887568227e-12 -0.002775460401)
(0.000157342142 1.888053082e-12 -0.002776645124)
(0.0001884285446 1.888451201e-12 -0.002777617392)
(0.0002115279071 1.888746971e-12 -0.002778339854)
(0.000225752225 1.888929009e-12 -0.002778784739)
(0.0002305553226 1.888990477e-12 -0.002778934962)
(0.0002257522249 1.888929009e-12 -0.002778784739)
(0.0002115279069 1.888746971e-12 -0.002778339854)
(0.0001884285444 1.888451201e-12 -0.002777617392)
(0.0001573421417 1.888053082e-12 -0.002776645124)
(0.0001194629117 1.887568227e-12 -0.002775460401)
(7.624690657e-05 1.88701485e-12 -0.002774108764)
(2.935521318e-05 1.886415503e-12 -0.002772642165)
(-1.941072562e-05 1.885791003e-12 -0.002771116947)
(-6.817666442e-05 1.885166502e-12 -0.002769591728)
(-0.0001150683578 1.884566288e-12 -0.002768125129)
(-0.0001582843629 1.884012911e-12 -0.002766773492)
(-0.0001961635929 1.883528056e-12 -0.00276558877)
(-0.0002272499955 1.883129937e-12 -0.002764616502)
(-0.000250349358 1.8828346e-12 -0.002763894039)
(-0.0002645736759 1.882652562e-12 -0.002763449155)
(-0.0002887068969 3.769883788e-12 -0.005534012695)
(-0.0002839048586 3.769945185e-12 -0.005534162852)
(-0.0002696836778 3.770127223e-12 -0.00553460754)
(-0.0002465894099 3.770422776e-12 -0.005535329684)
(-0.0002155098634 3.770820461e-12 -0.005536301522)
(-0.0001776389877 3.771304883e-12 -0.005537485722)
(-0.000134432514 3.771857826e-12 -0.005538836762)
(-8.755116266e-05 3.772457173e-12 -0.005540302714)
(-3.87959793e-05 3.773080806e-12 -0.005541827259)
(9.959204054e-06 3.773704439e-12 -0.005543351804)
(5.684055534e-05 3.774304654e-12 -0.005544817755)
(0.0001000470291 3.774857597e-12 -0.005546168796)
(0.0001379179047 3.775342018e-12 -0.005547352995)
(0.0001689974511 3.775739704e-12 -0.005548324834)
(0.000192091719 3.776035257e-12 -0.005549046978)
(0.0002063128997 3.776217078e-12 -0.005549491665)
(0.0002111149379 3.776278474e-12 -0.005549641822)
(0.0002063128996 3.776217078e-12 -0.005549491665)
(0.0001920917188 3.776035257e-12 -0.005549046978)
(0.0001689974509 3.775739704e-12 -0.005548324834)
(0.0001379179044 3.775342018e-12 -0.005547352995)
(0.0001000470288 3.774857597e-12 -0.005546168796)
(5.684055503e-05 3.774304654e-12 -0.005544817755)
(9.95920372e-06 3.773704439e-12 -0.005543351804)
(-3.879597964e-05 3.773080806e-12 -0.005541827259)
(-8.755116299e-05 3.772457173e-12 -0.005540302714)
(-0.0001344325143 3.771857826e-12 -0.005538836762)
(-0.000177638988 3.771304883e-12 -0.005537485722)
(-0.0002155098636 3.770820461e-12 -0.005536301522)
(-0.0002465894101 3.770422776e-12 -0.005535329684)
(-0.0002696836779 3.770127223e-12 -0.00553460754)
(-0.0002839048586 3.769945185e-12 -0.005534162852)
(-0.0003079473553 5.662140621e-12 -0.008303906258)
(-0.0003031471095 5.662202044e-12 -0.008304056303)
(-0.000288931237 5.662383756e-12 -0.008304500658)
(-0.0002658455894 5.662679093e-12 -0.008305222263)
(-0.0002347776438 5.663075911e-12 -0.008306193375)
(-0.0001969209041 5.663559899e-12 -0.00830737669)
(-0.0001537305579 5.664111975e-12 -0.008308726721)
(-0.0001068667058 5.664710888e-12 -0.008310191577)
(-5.812972114e-05 5.665333654e-12 -0.008311714983)
(-9.392736463e-06 5.665956419e-12 -0.00831323839)
(3.747111559e-05 5.6665562e-12 -0.008314703246)
(8.066146177e-05 5.667108276e-12 -0.008316053277)
(0.0001185182015 5.667592264e-12 -0.008317236592)
(0.000149586147 5.667989082e-12 -0.008318207704)
(0.0001726717945 5.668284418e-12 -0.008318929309)
(0.0001868876669 5.668465914e-12 -0.008319373664)
(0.0001916879127 5.668527294e-12 -0.008319523709)
(0.0001868876669 5.668465914e-12 -0.008319373664)
(0.0001726717944 5.668284418e-12 -0.008318929309)
(0.0001495861468 5.667989082e-12 -0.008318207704)
(0.0001185182012 5.667592264e-12 -0.008317236592)
(8.066146149e-05 5.667108276e-12 -0.008316053277)
(3.747111527e-05 5.6665562e-12 -0.008314703246)
(-9.392736798e-06 5.665956419e-12 -0.00831323839)
(-5.812972148e-05 5.665333654e-12 -0.008311714983)
(-0.0001068667062 5.664710888e-12 -0.008310191577)
(-0.0001537305582 5.664111975e-12 -0.008308726721)
(-0.0001969209044 5.663559899e-12 -0.00830737669)
(-0.0002347776441 5.663075911e-12 -0.008306193375)
(-0.0002658455896 5.662679093e-12 -0.008305222263)
(-0.0002889312371 5.662383756e-12 -0.008304500658)
(-0.0003031471095 5.662202044e-12 -0.008304056303)
(-0.0003270689148 7.561751471e-12 -0.01107254538)
(-0.0003222712342 7.561812721e-12 -0.01107269526)
(-0.0003080629586 7.561994217e-12 -0.01107313914)
(-0.0002849896478 7.562288903e-12 -0.01107385997)
(-0.0002539383048 7.562685287e-12 -0.01107483005)
(-0.0002161017954 7.563168408e-12 -0.0110760121)
(-0.0001729345299 7.563719182e-12 -0.01107736068)
(-0.0001260957216 7.564317228e-12 -0.01107882397)
(-7.738478163e-05 7.564939127e-12 -0.01108034575)
(-2.86738417e-05 7.565561025e-12 -0.01108186753)
(1.816496659e-05 7.566159071e-12 -0.01108333082)
(6.133223212e-05 7.566709846e-12 -0.0110846794)
(9.916874141e-05 7.567192966e-12 -0.01108586145)
(0.0001302200844 7.56758935e-12 -0.01108683153)
(0.0001532933951 7.567884036e-12 -0.01108755236)
(0.0001675016706 7.568065315e-12 -0.01108799624)
(0.0001722993512 7.568126632e-12 -0.01108814612)
(0.0001675016706 7.568065315e-12 -0.01108799624)
(0.0001532933949 7.567884036e-12 -0.01108755236)
(0.0001302200842 7.56758935e-12 -0.01108683153)
(9.916874117e-05 7.567192966e-12 -0.01108586145)
(6.133223184e-05 7.566709846e-12 -0.0110846794)
(1.816496627e-05 7.566159071e-12 -0.01108333082)
(-2.867384204e-05 7.565561025e-12 -0.01108186753)
(-7.738478197e-05 7.564939127e-12 -0.01108034575)
(-0.0001260957219 7.564317228e-12 -0.01107882397)
(-0.0001729345302 7.563719182e-12 -0.01107736068)
(-0.0002161017957 7.563168408e-12 -0.0110760121)
(-0.000253938305 7.562685287e-12 -0.01107483005)
(-0.000284989648 7.562288903e-12 -0.01107385997)
(-0.0003080629587 7.561994217e-12 -0.01107313914)
(-0.0003222712342 7.561812721e-12 -0.01107269526)
(-0.0003460399268 9.470997411e-12 -0.01383946875)
(-0.0003412456384 9.471058486e-12 -0.01383961843)
(-0.0003270474089 9.471239331e-12 -0.01384006168)
(-0.0003039904123 9.471533367e-12 -0.01384078149)
(-0.0002729610245 9.471928884e-12 -0.01384175019)
(-0.0002351512678 9.472410703e-12 -0.01384293057)
(-0.0001920145241 9.47296061e-12 -0.01384427725)
(-0.0001452088336 9.473557355e-12 -0.01384573847)
(-9.653233519e-05 9.474177519e-12 -0.01384725809)
(-4.78558368e-05 9.474797683e-12 -0.01384877771)
(-1.050146336e-06 9.475394427e-12 -0.01385023893)
(4.208659737e-05 9.475944335e-12 -0.01385158561)
(7.989635399e-05 9.476426154e-12 -0.01385276599)
(0.0001109257418 9.476821671e-12 -0.01385373469)
(0.0001339827383 9.477115273e-12 -0.0138544545)
(0.0001481809678 9.477296118e-12 -0.01385489775)
(0.0001529752561 9.477357269e-12 -0.01385504743)
(0.0001481809677 9.477296118e-12 -0.01385489775)
(0.0001339827382 9.477115273e-12 -0.0138544545)
(0.0001109257416 9.476821671e-12 -0.01385373469)
(7.989635374e-05 9.476426154e-12 -0.01385276599)
(4.208659708e-05 9.475944335e-12 -0.01385158561)
(-1.050146655e-06 9.475394427e-12 -0.01385023893)
(-4.785583714e-05 9.474797683e-12 -0.01384877771)
(-9.653233554e-05 9.474177519e-12 -0.01384725809)
(-0.0001452088339 9.473557355e-12 -0.01384573847)
(-0.0001920145244 9.47296061e-12 -0.01384427725)
(-0.0002351512681 9.472410703e-12 -0.01384293057)
(-0.0002729610247 9.471928884e-12 -0.01384175019)
(-0.0003039904125 9.471533367e-12 -0.01384078149)
(-0.000327047409 9.471239331e-12 -0.01384006168)
(-0.0003412456385 9.471058486e-12 -0.01383961843)
(-0.0003648259143 1.13920158e-11 -0.01660418003)
(-0.0003600359126 1.139207674e-11 -0.01660432943)
(-0.0003458503783 1.139225715e-11 -0.01660477189)
(-0.0003228139979 1.13925501e-11 -0.01660549041)
(-0.0002918123546 1.139294431e-11 -0.01660645738)
(-0.0002540364051 1.139342483e-11 -0.01660763565)
(-0.0002109382317 1.1393973e-11 -0.01660897992)
(-0.000164174392 1.139456758e-11 -0.01661043852)
(-0.0001155414171 1.139518601e-11 -0.01661195543)
(-6.690844232e-05 1.139580444e-11 -0.01661347233)
(-2.014460265e-05 1.139639902e-11 -0.01661493093)
(2.29535708e-05 1.139694719e-11 -0.0166162752)
(6.072952023e-05 1.139742771e-11 -0.01661745347)
(9.173116345e-05 1.139782192e-11 -0.01661842044)
(0.0001147675438 1.139811487e-11 -0.01661913896)
(0.0001289530781 1.139829529e-11 -0.01661958142)
(0.0001337430796 1.13983562e-11 -0.01661973083)
(0.000128953078 1.139829529e-11 -0.01661958142)
(0.0001147675437 1.139811487e-11 -0.01661913896)
(9.173116326e-05 1.139782192e-11 -0.01661842044)
(6.072951998e-05 1.139742771e-11 -0.01661745347)
(2.295357051e-05 1.139694719e-11 -0.0166162752)
(-2.014460298e-05 1.139639902e-11 -0.01661493093)
(-6.690844266e-05 1.139580444e-11 -0.01661347233)
(-0.0001155414175 1.139518601e-11 -0.01661195543)
(-0.0001641743923 1.139456758e-11 -0.01661043852)
(-0.000210938232 1.1393973e-11 -0.01660897992)
(-0.0002540364054 1.139342483e-11 -0.01660763565)
(-0.0002918123549 1.139294431e-11 -0.01660645738)
(-0.0003228139981 1.13925501e-11 -0.01660549041)
(-0.0003458503784 1.139225715e-11 -0.01660477189)
(-0.0003600359127 1.139207674e-11 -0.01660432943)
(-0.0003833892341 1.332676665e-11 -0.01936614058)
(-0.0003786044928 1.332682727e-11 -0.01936628965)
(-0.0003644345369 1.332700703e-11 -0.01936673114)
(-0.0003414234549 1.33272989e-11 -0.01936744809)
(-0.0003104558575 1.332769181e-11 -0.01936841293)
(-0.0002727213933 1.332817016e-11 -0.0193695886)
(-0.00022967055 1.332871617e-11 -0.01937092992)
(-0.0001829580661 1.332930901e-11 -0.01937238532)
(-0.0001343784997 1.332992484e-11 -0.01937389889)
(-8.579893333e-05 1.333054066e-11 -0.01937541246)
(-3.908644944e-05 1.333113351e-11 -0.01937686786)
(3.964393849e-06 1.333167951e-11 -0.01937820918)
(4.169885796e-05 1.333215786e-11 -0.01937938485)
(7.266645536e-05 1.333255078e-11 -0.0193803497)
(9.567753727e-05 1.333284264e-11 -0.01938106664)
(0.0001098474931 1.333302219e-11 -0.01938150813)
(0.0001146322343 1.3333083e-11 -0.01938165721)
(0.000109847493 1.333302219e-11 -0.01938150813)
(9.567753714e-05 1.333284264e-11 -0.01938106664)
(7.266645516e-05 1.333255078e-11 -0.0193803497)
(4.169885771e-05 1.333215786e-11 -0.01937938485)
(3.964393558e-06 1.333167951e-11 -0.01937820918)
(-3.908644976e-05 1.333113351e-11 -0.01937686786)
(-8.579893367e-05 1.333054066e-11 -0.01937541246)
(-0.0001343785001 1.332992484e-11 -0.01937389889)
(-0.0001829580664 1.332930901e-11 -0.01937238532)
(-0.0002296705503 1.332871617e-11 -0.01937092992)
(-0.0002727213936 1.332817016e-11 -0.0193695886)
(-0.0003104558577 1.332769181e-11 -0.01936841293)
(-0.0003414234551 1.33272989e-11 -0.01936744809)
(-0.000364434537 1.332700703e-11 -0.01936673114)
(-0.0003786044928 1.332682727e-11 -0.01936628965)
(-0.0004016888297 1.527700053e-11 -0.02212476343)
(-0.000396910411 1.527706097e-11 -0.02212491211)
(-0.0003827591794 1.527723976e-11 -0.02212535243)
(-0.0003597785046 1.527753054e-11 -0.02212606748)
(-0.000328851828 1.527792129e-11 -0.02212702978)
(-0.0002911672266 1.52783979e-11 -0.02212820234)
(-0.0002481732711 1.527894131e-11 -0.02212954011)
(-0.0002015225136 1.527953111e-11 -0.02213099167)
(-0.0001530071408 1.528014434e-11 -0.02213250124)
(-0.000104491768 1.528075756e-11 -0.02213401081)
(-5.784101048e-05 1.528134737e-11 -0.02213546236)
(-1.484705504e-05 1.528189077e-11 -0.02213680013)
(2.283754633e-05 1.528236739e-11 -0.0221379727)
(5.376422281e-05 1.528275813e-11 -0.02213893499)
(7.674489763e-05 1.528304848e-11 -0.02213965004)
(9.08961291e-05 1.528322748e-11 -0.02214009036)
(9.567454771e-05 1.528328776e-11 -0.02214023904)
(9.089612903e-05 1.528322748e-11 -0.02214009036)
(7.67448975e-05 1.528304848e-11 -0.02213965004)
(5.376422262e-05 1.528275813e-11 -0.02213893499)
(2.283754608e-05 1.528236739e-11 -0.0221379727)
(-1.484705534e-05 1.528189077e-11 -0.02213680013)
(-5.784101081e-05 1.528134737e-11 -0.02213546236)
(-0.0001044917683 1.528075756e-11 -0.02213401081)
(-0.0001530071411 1.528014434e-11 -0.02213250124)
(-0.000201522514 1.527953111e-11 -0.02213099166)
(-0.0002481732715 1.527894131e-11 -0.02212954011)
(-0.0002911672269 1.52783979e-11 -0.02212820234)
(-0.0003288518283 1.527792129e-11 -0.02212702978)
(-0.0003597785048 1.527753054e-11 -0.02212606748)
(-0.0003827591796 1.527723976e-11 -0.02212535243)
(-0.000396910411 1.527706097e-11 -0.02212491211)
(-0.0004196800908 1.724422854e-11 -0.0248794084)
(-0.0004149091528 1.724428868e-11 -0.02487955661)
(-0.0004007800754 1.724446649e-11 -0.02487999555)
(-0.0003778353774 1.724475554e-11 -0.02488070836)
(-0.0003469571173 1.724514455e-11 -0.02488166764)
(-0.0003093315121 1.724561813e-11 -0.02488283654)
(-0.0002664048648 1.724615849e-11 -0.02488417012)
(-0.0002198271402 1.724674483e-11 -0.02488561713)
(-0.0001713877194 1.724735459e-11 -0.02488712197)
(-0.0001229482987 1.724796434e-11 -0.02488862681)
(-7.637057413e-05 1.724855155e-11 -0.02489007382)
(-3.344392683e-05 1.724909191e-11 -0.0248914074)
(4.181678338e-06 1.724956549e-11 -0.0248925763)
(3.505993832e-05 1.72499545e-11 -0.02489353557)
(5.80046363e-05 1.725024312e-11 -0.02489424839)
(7.213371365e-05 1.725042093e-11 -0.02489468733)
(7.690465153e-05 1.725048099e-11 -0.02489483554)
(7.213371358e-05 1.725042093e-11 -0.02489468733)
(5.800463617e-05 1.725024312e-11 -0.02489424839)
(3.505993812e-05 1.72499545e-11 -0.02489353557)
(4.181678086e-06 1.724956549e-11 -0.0248925763)
(-3.344392713e-05 1.724909191e-11 -0.0248914074)
(-7.637057446e-05 1.724855155e-11 -0.02489007382)
(-0.000122948299 1.724796434e-11 -0.02488862681)
(-0.0001713877198 1.724735459e-11 -0.02488712197)
(-0.0002198271406 1.724674483e-11 -0.02488561713)
(-0.0002664048651 1.724615849e-11 -0.02488417012)
(-0.0003093315124 1.724561813e-11 -0.02488283654)
(-0.0003469571176 1.724514455e-11 -0.02488166764)
(-0.0003778353776 1.724475554e-11 -0.02488070836)
(-0.0004007800755 1.724446649e-11 -0.02487999555)
(-0.0004149091529 1.724428868e-11 -0.02487955661)
(-0.0004373148257 1.922969445e-11 -0.02762937867)
(-0.0004325526271 1.922975407e-11 -0.02762952634)
(-0.000418449431 1.92299308e-11 -0.02762996367)
(-0.0003955467625 1.923021811e-11 -0.02763067387)
(-0.0003647250645 1.923060409e-11 -0.02763162964)
(-0.0003271683811 1.923107463e-11 -0.02763279425)
(-0.0002843203658 1.923161153e-11 -0.02763412294)
(-0.0002378279612 1.923219396e-11 -0.02763556465)
(-0.0001894772707 1.923280025e-11 -0.02763706398)
(-0.0001411265801 1.923340653e-11 -0.02763856331)
(-9.463417561e-05 1.923398897e-11 -0.02764000501)
(-5.178616036e-05 1.923452586e-11 -0.02764133371)
(-1.422947691e-05 1.923499641e-11 -0.02764249832)
(1.659222098e-05 1.923538238e-11 -0.02764345409)
(3.949488939e-05 1.923566926e-11 -0.02764416429)
(5.359808541e-05 1.923584621e-11 -0.02764460162)
(5.8360284e-05 1.923590591e-11 -0.02764474929)
(5.359808534e-05 1.923584621e-11 -0.02764460162)
(3.949488925e-05 1.923566926e-11 -0.02764416429)
(1.659222078e-05 1.923538238e-11 -0.02764345409)
(-1.422947717e-05 1.923499641e-11 -0.02764249832)
(-5.178616066e-05 1.923452586e-11 -0.02764133371)
(-9.463417594e-05 1.923398897e-11 -0.02764000501)
(-0.0001411265805 1.923340653e-11 -0.02763856331)
(-0.000189477271 1.923280025e-11 -0.02763706398)
(-0.0002378279616 1.923219396e-11 -0.02763556465)
(-0.0002843203661 1.923161153e-11 -0.02763412294)
(-0.0003271683814 1.923107463e-11 -0.02763279425)
(-0.0003647250648 1.923060409e-11 -0.02763162964)
(-0.0003955467627 1.923021811e-11 -0.02763067387)
(-0.0004184494311 1.92299308e-11 -0.02762996367)
(-0.0004325526271 1.922975407e-11 -0.02762952634)
(-0.0004545413561 2.123434974e-11 -0.030373919)
(-0.0004497892574 2.123440898e-11 -0.03037406605)
(-0.0004357159722 2.123458419e-11 -0.03037450153)
(-0.000412861877 2.12348689e-11 -0.03037520871)
(-0.0003821055476 2.123525227e-11 -0.03037616043)
(-0.0003446285165 2.123571935e-11 -0.0303773201)
(-0.0003018713758 2.123625234e-11 -0.03037864316)
(-0.0002554775751 2.123683e-11 -0.03038007875)
(-0.0002072294295 2.123743108e-11 -0.03038157172)
(-0.000158981284 2.123803217e-11 -0.03038306469)
(-0.0001125874833 2.12386107e-11 -0.03038450028)
(-6.983034265e-05 2.123914369e-11 -0.03038582334)
(-3.235331163e-05 2.123961076e-11 -0.03038698301)
(-1.596982214e-06 2.123999414e-11 -0.03038793473)
(2.125711287e-05 2.124027885e-11 -0.03038864191)
(3.533039801e-05 2.124045427e-11 -0.03038907739)
(4.008249664e-05 2.124051337e-11 -0.03038922444)
(3.533039793e-05 2.124045427e-11 -0.03038907739)
(2.125711273e-05 2.124027885e-11 -0.03038864191)
(-1.596982416e-06 2.123999414e-11 -0.03038793473)
(-3.235331189e-05 2.123961076e-11 -0.03038698301)
(-6.983034295e-05 2.123914369e-11 -0.03038582334)
(-0.0001125874836 2.12386107e-11 -0.03038450028)
(-0.0001589812844 2.123803217e-11 -0.03038306469)
(-0.0002072294299 2.123743108e-11 -0.03038157172)
(-0.0002554775755 2.123683e-11 -0.03038007875)
(-0.0003018713762 2.123625234e-11 -0.03037864316)
(-0.0003446285168 2.123571935e-11 -0.0303773201)
(-0.0003821055478 2.123525227e-11 -0.03037616043)
(-0.0004128618772 2.12348689e-11 -0.03037520871)
(-0.0004357159723 2.123458419e-11 -0.03037450153)
(-0.0004497892575 2.123440898e-11 -0.03037406605)
(-0.0004713047431 2.325883187e-11 -0.03311221568)
(-0.0004665642057 2.325889069e-11 -0.03311236201)
(-0.0004525251589 2.325906416e-11 -0.03311279537)
(-0.0004297266647 2.325934671e-11 -0.03311349912)
(-0.0003990451613 2.325972661e-11 -0.0331144462)
(-0.0003616593068 2.326018935e-11 -0.03311560024)
(-0.0003190061886 2.326071757e-11 -0.03311691686)
(-0.0002727252578 2.326129046e-11 -0.03311834547)
(-0.0002245944936 2.326188634e-11 -0.03311983117)
(-0.0001764637293 2.326248222e-11 -0.03312131688)
(-0.0001301827985 2.326305511e-11 -0.03312274549)
(-8.752968031e-05 2.326358333e-11 -0.03312406211)
(-5.014382592e-05 2.326404607e-11 -0.03312521615)
(-1.946232255e-05 2.326442598e-11 -0.03312616323)
(3.336171564e-06 2.326470765e-11 -0.03312686697)
(1.737521827e-05 2.326488156e-11 -0.03312730033)
(2.211575568e-05 2.32649402e-11 -0.03312744667)
(1.73752182e-05 2.326488156e-11 -0.03312730033)
(3.336171424e-06 2.326470765e-11 -0.03312686697)
(-1.946232276e-05 2.326442598e-11 -0.03312616323)
(-5.014382618e-05 2.326404607e-11 -0.03312521615)
(-8.752968062e-05 2.326358333e-11 -0.03312406211)
(-0.0001301827989 2.326305511e-11 -0.03312274549)
(-0.0001764637297 2.326248222e-11 -0.03312131688)
(-0.0002245944939 2.326188634e-11 -0.03311983117)
(-0.0002727252581 2.326129046e-11 -0.03311834547)
(-0.0003190061889 2.326071757e-11 -0.03311691686)
(-0.0003616593072 2.326018935e-11 -0.03311560024)
(-0.0003990451615 2.325972661e-11 -0.0331144462)
(-0.0004297266649 2.325934671e-11 -0.03311349912)
(-0.000452525159 2.325906416e-11 -0.03311279537)
(-0.0004665642057 2.325889069e-11 -0.03311236201)
(-0.0004875471402 2.530344622e-11 -0.03584339826)
(-0.0004828197212 2.53035043e-11 -0.03584354378)
(-0.0004688195245 2.530367626e-11 -0.03584397475)
(-0.0004460841202 2.530395555e-11 -0.0358446746)
(-0.0004154875213 2.530433155e-11 -0.03584561644)
(-0.0003782051242 2.530478951e-11 -0.03584676409)
(-0.0003356700393 2.53053121e-11 -0.03584807343)
(-0.0002895171811 2.530587892e-11 -0.03584949413)
(-0.0002415196085 2.530646873e-11 -0.03585097162)
(-0.0001935220358 2.530705853e-11 -0.03585244911)
(-0.0001473691776 2.530762535e-11 -0.03585386982)
(-0.0001048340928 2.530814794e-11 -0.03585517915)
(-6.755169576e-05 2.530860591e-11 -0.0358563268)
(-3.695509689e-05 2.530898191e-11 -0.03585726865)
(-1.421969273e-05 2.53092612e-11 -0.0358579685)
(-2.194960852e-07 2.530943315e-11 -0.03585839946)
(4.507922898e-06 2.530949119e-11 -0.03585854498)
(-2.194961575e-07 2.530943315e-11 -0.03585839946)
(-1.421969288e-05 2.53092612e-11 -0.0358579685)
(-3.69550971e-05 2.530898191e-11 -0.03585726865)
(-6.755169602e-05 2.530860591e-11 -0.0358563268)
(-0.0001048340931 2.530814794e-11 -0.03585517915)
(-0.000147369178 2.530762535e-11 -0.03585386982)
(-0.0001935220362 2.530705853e-11 -0.03585244911)
(-0.0002415196089 2.530646873e-11 -0.03585097162)
(-0.0002895171815 2.530587892e-11 -0.03584949413)
(-0.0003356700397 2.53053121e-11 -0.03584807343)
(-0.0003782051245 2.530478951e-11 -0.03584676409)
(-0.0004154875216 2.530433155e-11 -0.03584561644)
(-0.0004460841204 2.530395555e-11 -0.0358446746)
(-0.0004688195246 2.530367626e-11 -0.03584397475)
(-0.0004828197213 2.53035043e-11 -0.03584354378)
(-0.0005032082793 2.736815229e-11 -0.03856654323)
(-0.0004984956237 2.73682097e-11 -0.03856668784)
(-0.000484539149 2.73683797e-11 -0.03856711611)
(-0.0004618747464 2.736865552e-11 -0.0385678116)
(-0.0004313736992 2.736902718e-11 -0.03856874756)
(-0.0003942077334 2.736947951e-11 -0.03856988805)
(-0.0003518054836 2.736999603e-11 -0.03857118921)
(-0.0003057967586 2.737055634e-11 -0.03857260105)
(-0.0002579490802 2.737113921e-11 -0.03857406932)
(-0.0002101014018 2.737172208e-11 -0.03857553758)
(-0.0001640926769 2.737228152e-11 -0.03857694942)
(-0.0001216904271 2.737279804e-11 -0.03857825059)
(-8.452446131e-05 2.737325037e-11 -0.03857939107)
(-5.402341421e-05 2.737362203e-11 -0.03858032703)
(-3.135901168e-05 2.737389785e-11 -0.03858102252)
(-1.7402537e-05 2.737406786e-11 -0.03858145079)
(-1.268988153e-05 2.737412525e-11 -0.0385815954)
(-1.740253708e-05 2.737406786e-11 -0.03858145079)
(-3.135901182e-05 2.737389785e-11 -0.03858102252)
(-5.402341442e-05 2.737362203e-11 -0.03858032703)
(-8.452446157e-05 2.737325037e-11 -0.03857939107)
(-0.0001216904274 2.737279804e-11 -0.03857825059)
(-0.0001640926772 2.737228152e-11 -0.03857694942)
(-0.0002101014022 2.737172208e-11 -0.03857553758)
(-0.0002579490806 2.737113921e-11 -0.03857406932)
(-0.000305796759 2.737055634e-11 -0.03857260105)
(-0.0003518054839 2.736999603e-11 -0.03857118921)
(-0.0003942077337 2.736947951e-11 -0.03856988805)
(-0.0004313736995 2.736902718e-11 -0.03856874756)
(-0.0004618747466 2.736865552e-11 -0.0385678116)
(-0.0004845391491 2.73683797e-11 -0.03856711611)
(-0.0004984956238 2.73682097e-11 -0.03856668784)
(-0.0005182260719 2.945255477e-11 -0.04128067956)
(-0.0005135299016 2.945261136e-11 -0.04128082316)
(-0.0004996222478 2.945277919e-11 -0.04128124844)
(-0.0004770371271 2.945305111e-11 -0.04128193907)
(-0.0004466427752 2.945341757e-11 -0.04128286849)
(-0.0004096068189 2.945386383e-11 -0.041284001)
(-0.0003673528958 2.94543734e-11 -0.04128529307)
(-0.0003215051132 2.945492548e-11 -0.04128669504)
(-0.0002738248099 2.945550054e-11 -0.04128815304)
(-0.0002261445066 2.94560756e-11 -0.04128961104)
(-0.0001802967241 2.945662768e-11 -0.04129101301)
(-0.0001380428009 2.945713725e-11 -0.04129230508)
(-0.0001010068447 2.945758351e-11 -0.04129343759)
(-7.061249285e-05 2.945794997e-11 -0.04129436701)
(-4.802737229e-05 2.945822232e-11 -0.04129505764)
(-3.411971852e-05 2.945838994e-11 -0.04129548291)
(-2.942354831e-05 2.945844657e-11 -0.04129562652)
(-3.411971859e-05 2.945838994e-11 -0.04129548291)
(-4.802737243e-05 2.945822232e-11 -0.04129505764)
(-7.061249306e-05 2.945794997e-11 -0.04129436701)
(-0.000101006845 2.945758351e-11 -0.04129343759)
(-0.0001380428012 2.945713725e-11 -0.04129230508)
(-0.0001802967244 2.945662768e-11 -0.04129101301)
(-0.000226144507 2.94560756e-11 -0.04128961104)
(-0.0002738248103 2.945550054e-11 -0.04128815304)
(-0.0003215051135 2.945492548e-11 -0.04128669504)
(-0.0003673528961 2.94543734e-11 -0.04128529307)
(-0.0004096068193 2.945386383e-11 -0.041284001)
(-0.0004466427754 2.945341757e-11 -0.04128286849)
(-0.0004770371273 2.945305111e-11 -0.04128193907)
(-0.0004996222479 2.945277919e-11 -0.04128124844)
(-0.0005135299017 2.945261136e-11 -0.04128082316)
(-0.0005325373244 3.155590013e-11 -0.0439847961)
(-0.0005278594235 3.155595587e-11 -0.04398493858)
(-0.0005140058739 3.1556121e-11 -0.04398536056)
(-0.0004915086152 3.155638858e-11 -0.04398604581)
(-0.000461232505 3.15567494e-11 -0.04398696801)
(-0.0004243406281 3.155718872e-11 -0.04398809172)
(-0.0003822510835 3.155769049e-11 -0.04398937375)
(-0.0003365816605 3.155823519e-11 -0.04399076482)
(-0.0002890868457 3.155880071e-11 -0.04399221149)
(-0.000241592031 3.155936623e-11 -0.04399365816)
(-0.000195922608 3.155991007e-11 -0.04399504923)
(-0.0001538330634 3.156041184e-11 -0.04399633126)
(-0.0001169411866 3.156085115e-11 -0.04399745497)
(-8.666507647e-05 3.156121198e-11 -0.04399837716)
(-6.416781778e-05 3.156148043e-11 -0.04399906242)
(-5.031426834e-05 3.156164555e-11 -0.04399948439)
(-4.563636743e-05 3.156170119e-11 -0.04399962688)
(-5.031426841e-05 3.156164555e-11 -0.04399948439)
(-6.416781793e-05 3.156148043e-11 -0.04399906242)
(-8.666507668e-05 3.156121198e-11 -0.04399837716)
(-0.0001169411868 3.156085115e-11 -0.04399745497)
(-0.0001538330638 3.156041184e-11 -0.04399633126)
(-0.0001959226084 3.155991007e-11 -0.04399504923)
(-0.0002415920314 3.155936623e-11 -0.04399365816)
(-0.0002890868461 3.155880071e-11 -0.04399221149)
(-0.0003365816608 3.155823519e-11 -0.04399076482)
(-0.0003822510839 3.155769049e-11 -0.04398937375)
(-0.0004243406284 3.155718872e-11 -0.04398809172)
(-0.0004612325053 3.15567494e-11 -0.04398696801)
(-0.0004915086154 3.155638858e-11 -0.04398604581)
(-0.0005140058741 3.1556121e-11 -0.04398536056)
(-0.0005278594235 3.155595587e-11 -0.04398493858)
(-0.0005460785406 3.367707921e-11 -0.04667785062)
(-0.0005414207381 3.3677134e-11 -0.04667799189)
(-0.00052762671 3.367729598e-11 -0.04667841024)
(-0.0005052261101 3.367755987e-11 -0.04667908961)
(-0.0004750800804 3.367791419e-11 -0.04668000389)
(-0.0004383467084 3.367834614e-11 -0.04668111796)
(-0.0003964380003 3.36788388e-11 -0.04668238899)
(-0.0003509647947 3.367937353e-11 -0.04668376812)
(-0.0003036740402 3.367992951e-11 -0.04668520237)
(-0.0002563832856 3.368048548e-11 -0.04668663662)
(-0.00021091008 3.368102021e-11 -0.04668801576)
(-0.000169001372 3.368151287e-11 -0.04668928678)
(-0.0001322680001 3.368194482e-11 -0.04669040085)
(-0.0001021219704 3.368229914e-11 -0.04669131513)
(-7.97213706e-05 3.36825626e-11 -0.0466919945)
(-6.592734255e-05 3.36827248e-11 -0.04669241285)
(-6.126954012e-05 3.368277959e-11 -0.04669255412)
(-6.592734263e-05 3.36827248e-11 -0.04669241285)
(-7.972137075e-05 3.36825626e-11 -0.0466919945)
(-0.0001021219707 3.368229914e-11 -0.04669131513)
(-0.0001322680003 3.368194482e-11 -0.04669040085)
(-0.0001690013723 3.368151287e-11 -0.04668928678)
(-0.0002109100804 3.368102021e-11 -0.04668801576)
(-0.000256383286 3.368048548e-11 -0.04668663662)
(-0.0003036740405 3.367992951e-11 -0.04668520237)
(-0.0003509647951 3.367937353e-11 -0.04668376812)
(-0.0003964380007 3.36788388e-11 -0.04668238899)
(-0.0004383467087 3.367834614e-11 -0.04668111796)
(-0.0004750800806 3.367791419e-11 -0.04668000389)
(-0.0005052261103 3.367755987e-11 -0.04667908961)
(-0.0005276267101 3.367729598e-11 -0.04667841024)
(-0.0005414207382 3.3677134e-11 -0.04667799189)
(-0.0005587867958 3.581463657e-11 -0.04935878047)
(-0.0005541509464 3.58146903e-11 -0.0493589204)
(-0.0005404219323 3.581484935e-11 -0.04935933482)
(-0.0005181269108 3.581510782e-11 -0.0493600078)
(-0.0004881229654 3.58154552e-11 -0.04936091347)
(-0.000451562725 3.581587891e-11 -0.04936201705)
(-0.000409851541 3.581636203e-11 -0.04936327611)
(-0.0003645926596 3.581688592e-11 -0.04936464226)
(-0.0003175247957 3.581743149e-11 -0.04936606302)
(-0.0002704569318 3.581797706e-11 -0.04936748377)