/*--------------------------------*- C++ -*----------------------------------*\
| =========                 |                                                 |
| \\      /  F ield         | OpenFOAM: The Open Source CFD Toolbox           |
|  \\    /   O peration     | Version:  2312                                  |
|   \\  /    A nd           | Website:  www.openfoam.com                      |
|    \\/     M anipulation  |                                                 |
\*---------------------------------------------------------------------------*/
FoamFile
{
    version     2.0;
    format      ascii;
    arch        "LSB;label=32;scalar=64";
    class       surfaceVectorField;
    location    "0.18/beam";
    object      Q;
}
// * * * * * * * * * * * * * * * * * * * * * * * * * * * * * * * * * * * * * //

dimensions      [1 1 -2 0 0 0 0];

oriented        oriented;

internalField   nonuniform List<vector> 
59
(
(0.2286422782 9.723546518e-12 -0.01431901159)
(0.2286425196 9.743276892e-12 -0.01431595445)
(0.2286429266 9.775841625e-12 -0.01431077654)
(0.228643506 9.820764519e-12 -0.01430335584)
(0.2286442673 9.877384211e-12 -0.01429352541)
(0.2286452219 9.9448596e-12 -0.01428107731)
(0.2286463835 1.002217697e-11 -0.01426576764)
(0.228647767 1.010815892e-11 -0.01424732262)
(0.2286493886 1.020147524e-11 -0.01422544573)
(0.2286512649 1.030065584e-11 -0.01419982577)
(0.2286534128 1.040410601e-11 -0.0141701458)
(0.2286558484 1.051012399e-11 -0.01413609268)
(0.2286585867 1.06169213e-11 -0.01409736715)
(0.228661641 1.072264592e-11 -0.014053694)
(0.2286650222 1.082540848e-11 -0.0140048322)
(0.2286687383 1.092331199e-11 -0.01395058458)
(0.2286727938 1.101448494e-11 -0.01389080666)
(0.2286771895 1.109711838e-11 -0.01382541439)
(0.2286819221 1.116950673e-11 -0.01375439035)
(0.2286869839 1.12300925e-11 -0.01367778829)
(0.2286923629 1.127751461e-11 -0.01359573565)
(0.2286980425 1.131065961e-11 -0.01350843409)
(0.2287040016 1.132871387e-11 -0.01341616878)
(0.2287102178 1.133122334e-11 -0.01331925162)
(0.2287166604 1.131813642e-11 -0.01321813511)
(0.2287233014 1.128985189e-11 -0.01311324107)
(0.2287301043 1.124728271e-11 -0.01300513659)
(0.2287370366 1.119183389e-11 -0.01289433795)
(0.228744058 1.112549113e-11 -0.01278149918)
(0.2287511333 1.105071289e-11 -0.01266720628)
(0.2287582203 1.097051502e-11 -0.01255217567)
(0.2287652823 1.088827316e-11 -0.01243704348)
(0.2287722764 1.080776975e-11 -0.01232256873)
(0.2287791656 1.073291693e-11 -0.01220942064)
(0.2287859077 1.066773696e-11 -0.01209837811)
(0.2287924672 1.061603608e-11 -0.01199011506)
(0.2287988046 1.058130473e-11 -0.01188538467)
(0.228804889 1.056639628e-11 -0.01178480041)
(0.2288106885 1.05733575e-11 -0.0116889921)
(0.228816183 1.060318471e-11 -0.0115983812)
(0.2288213563 1.065562232e-11 -0.01151330045)
(0.2288262089 1.072907488e-11 -0.01143376967)
(0.2288307513 1.082043611e-11 -0.0113595872)
(0.2288350156 1.09252253e-11 -0.01129013232)
(0.2288390486 1.10375286e-11 -0.01122446893)
(0.2288429192 1.115040425e-11 -0.01116123185)
(0.2288467074 1.125602743e-11 -0.01109882362)
(0.2288505039 1.13463656e-11 -0.01103546394)
(0.228854391 1.141358615e-11 -0.01096956807)
(0.2288584322 1.145089539e-11 -0.01089999108)
(0.2288626455 1.145310952e-11 -0.01082656378)
(0.2288669917 1.141729446e-11 -0.0107503577)
(0.2288713556 1.13430488e-11 -0.01067405205)
(0.2288755573 1.123223977e-11 -0.01060171389)
(0.2288793704 1.10883112e-11 -0.01053839121)
(0.2288825773 1.091467903e-11 -0.01048895595)
(0.2288850216 1.071339319e-11 -0.01045691652)
(0.2288866595 1.048383663e-11 -0.01044329637)
(0.228887554 1.02236371e-11 -0.01044667517)
)
;

boundaryField
{
    left
    {
        type            calculated;
        value           uniform (-0.2286421982 -1.652872768e-11 0.01432002231);
    }
    right
    {
        type            calculated;
        value           uniform (0.2288878123 3.119396587e-12 -0.01046462628);
    }
    beam
    {
        type            empty;
        value           nonuniform List<vector> 0();
    }
}


// ************************************************************************* //
