/*--------------------------------*- C++ -*----------------------------------*\
| =========                 |                                                 |
| \\      /  F ield         | OpenFOAM: The Open Source CFD Toolbox           |
|  \\    /   O peration     | Version:  2312                                  |
|   \\  /    A nd           | Website:  www.openfoam.com                      |
|    \\/     M anipulation  |                                                 |
\*---------------------------------------------------------------------------*/
FoamFile
{
    version     2.0;
    format      ascii;
    arch        "LSB;label=32;scalar=64";
    class       volVectorField;
    location    "0.18/beam";
    object      Theta;
}
// * * * * * * * * * * * * * * * * * * * * * * * * * * * * * * * * * * * * * //

dimensions      [0 0 0 0 0 0 0];

internalField   nonuniform List<vector> 
60
(
(-5.585752237e-13 0.06249400984 4.256863789e-11)
(-5.555512612e-13 0.06248716481 4.262632166e-11)
(-5.495047382e-13 0.06246960137 4.274026746e-11)
(-5.404405294e-13 0.06244309206 4.290879817e-11)
(-5.283675969e-13 0.06240570998 4.312941696e-11)
(-5.133008842e-13 0.06235744154 4.33988284e-11)
(-4.95263884e-13 0.06229685587 4.371296762e-11)
(-4.742918564e-13 0.06222313366 4.406703411e-11)
(-4.50435148e-13 0.06213489603 4.44555405e-11)
(-4.237633451e-13 0.0620309552 4.487236249e-11)
(-3.943693994e-13 0.06190992132 4.531080348e-11)
(-3.623735024e-13 0.06177049911 4.57636703e-11)
(-3.27927164e-13 0.06161137579 4.622335715e-11)
(-2.91216648e-13 0.06143135606 4.668194227e-11)
(-2.524656369e-13 0.06122934999 4.713129995e-11)
(-2.119369602e-13 0.06100444771 4.756322525e-11)
(-1.69933055e-13 0.06075593855 4.796958036e-11)
(-1.267955934e-13 0.06048335762 4.834242771e-11)
(-8.290229036e-14 0.0601865079 4.867423866e-11)
(-3.866378579e-14 0.05986548692 4.895805316e-11)
(5.482289195e-15 0.05952069906 4.918769444e-11)
(4.907840529e-14 0.05915286374 4.935798638e-11)
(9.165319121e-14 0.05876303574 4.946496955e-11)
(1.327405653e-13 0.05835250677 4.950615776e-11)
(1.718769919e-13 0.05792292137 4.94807187e-11)
(2.086208263e-13 0.05747616862 4.93897171e-11)
(2.42563932e-13 0.05701437793 4.923627512e-11)
(2.733408452e-13 0.0565398917 4.902572692e-11)
(3.006422845e-13 0.0560552377 4.876564748e-11)
(3.242226987e-13 0.05556310271 4.846590743e-11)
(3.439145563e-13 0.05506630799 4.81385234e-11)
(3.596200688e-13 0.05456778648 4.779734404e-11)
(3.713353803e-13 0.05407056012 4.74578478e-11)
(3.791366849e-13 0.05357771436 4.713655521e-11)
(3.831842018e-13 0.05309236535 4.685036227e-11)
(3.83713339e-13 0.05261761386 4.661582664e-11)
(3.810283779e-13 0.05215647906 4.644826395e-11)
(3.754868388e-13 0.05171180485 4.636082811e-11)
(3.674859444e-13 0.05128613238 4.636353689e-11)
(3.574404141e-13 0.05088153586 4.646235343e-11)
(3.457616284e-13 0.05049942217 4.665835438e-11)
(3.328281967e-13 0.05014030643 4.694707965e-11)
(3.18955627e-13 0.04980358209 4.731811898e-11)
(3.043555034e-13 0.04948732674 4.775502042e-11)
(2.890894216e-13 0.04918818869 4.823557699e-11)
(2.73008439e-13 0.04890143434 4.873255386e-11)
(2.556840493e-13 0.04862121294 4.921488774e-11)
(2.363269274e-13 0.04834114 4.964936681e-11)
(2.137124893e-13 0.04805518737 5.000274372e-11)
(1.861331702e-13 0.0477589387 5.024415635e-11)
(1.514440304e-13 0.04745094152 5.034765888e-11)
(1.072849444e-13 0.04713412418 5.029453785e-11)
(5.163938894e-14 0.04681648754 5.007511394e-11)
(-1.609138315e-14 0.046511244 4.968985941e-11)
(-9.329308536e-14 0.04623490067 4.915023013e-11)
(-1.715903853e-13 0.04600500591 4.848078535e-11)
(-2.339950848e-13 0.04583491976 4.772630272e-11)
(-2.536382746e-13 0.0457317018 4.697121118e-11)
(-1.995238193e-13 0.04568945222 4.638502542e-11)
(-6.29381971e-14 0.04569149913 4.632144351e-11)
)
;

boundaryField
{
    left
    {
        type            momentBeamRotationNR;
        value           uniform (-5.585752237e-13 0.06249400984 4.256863789e-11);
        momentSeries    
{
        file            "$FOAM_CASE/constant/beam/timeVsMoment";
        outOfBounds     clamp;
}
        moment          uniform (0 0 0);
    }
    right
    {
        type            momentBeamRotationNR;
        value           uniform (-6.293819711e-14 0.04569149913 4.632144351e-11);
        momentSeries    
{
        file            "$FOAM_CASE/constant/beam/timeVsMoment";
        outOfBounds     clamp;
}
        moment          uniform (0 0 0);
    }
    beam
    {
        type            empty;
    }
}


// ************************************************************************* //
