/*--------------------------------*- C++ -*----------------------------------*\
| =========                 |                                                 |
| \\      /  F ield         | OpenFOAM: The Open Source CFD Toolbox           |
|  \\    /   O peration     | Version:  2312                                  |
|   \\  /    A nd           | Website:  www.openfoam.com                      |
|    \\/     M anipulation  |                                                 |
\*---------------------------------------------------------------------------*/
FoamFile
{
    version     2.0;
    format      ascii;
    arch        "LSB;label=32;scalar=64";
    class       volVectorField;
    location    "0.18/beam";
    object      W;
}
// * * * * * * * * * * * * * * * * * * * * * * * * * * * * * * * * * * * * * //

dimensions      [0 1 0 0 0 0 0];

internalField   nonuniform List<vector> 
60
(
(-9.708528887e-06 9.430817869e-13 -0.00138560901)
(-2.911292202e-05 2.828499758e-12 -0.004156624884)
(-4.847903692e-05 4.717662505e-12 -0.006927029634)
(-6.77804057e-05 6.61300541e-12 -0.009696400333)
(-8.698915791e-05 8.516872693e-12 -0.01246429116)
(-0.0001060755128 1.043148199e-11 -0.01523022502)
(-0.0001250073218 1.235889001e-11 -0.01799368584)
(-0.0001437496779 1.430095963e-11 -0.02075411195)
(-0.000162264604 1.625932866e-11 -0.02351089052)
(-0.0001805108352 1.823538087e-11 -0.02626335342)
(-0.0001984437065 2.023021948e-11 -0.02901077454)
(-0.000216015153 2.224464363e-11 -0.0317523689)
(-0.0002331738345 2.427912845e-11 -0.03448729345)
(-0.0002498653829 2.633380896e-11 -0.0372146498)
(-0.0002660327779 2.840846858e-11 -0.03993348884)
(-0.0002816168422 3.050253276e-11 -0.04264281724)
(-0.0002965568496 3.261506856e-11 -0.04534160574)
(-0.0003107912311 3.474479024e-11 -0.04802879901)
(-0.0003242583607 3.689007247e-11 -0.05070332703)
(-0.0003368973989 3.90489714e-11 -0.05336411752)
(-0.0003486491678 4.121925399e-11 -0.05601010924)
(-0.000359457032 4.339843677e-11 -0.05864026579)
(-0.0003692672024 4.558371079e-11 -0.06125344188)
(-0.0003780318815 4.777249302e-11 -0.06384898931)
(-0.0003857062006 4.996175525e-11 -0.06642587645)
(-0.000392251939 5.214859413e-11 -0.06898330536)
(-0.0003976365221 5.433019292e-11 -0.07152055818)
(-0.0004018345 5.65039177e-11 -0.0740370251)
(-0.0004048268284 5.866740855e-11 -0.07653219471)
(-0.0004066021861 6.081868609e-11 -0.07900568057)
(-0.0004071560291 6.295623843e-11 -0.0814572084)
(-0.0004064917539 6.507911887e-11 -0.08388664117)
(-0.0004046195878 6.718700843e-11 -0.08629396372)
(-0.0004015576018 6.928028746e-11 -0.08867930609)
(-0.0003973304731 7.136005266e-11 -0.09104292571)
(-0.0003919702996 7.342813056e-11 -0.09338522748)
(-0.0003855151946 7.548703154e-11 -0.09570674225)
(-0.0003780097585 7.753988497e-11 -0.09800814008)
(-0.000369503357 7.959031691e-11 -0.1002902013)
(-0.0003600500048 8.164229733e-11 -0.1025538171)
(-0.000349706092 8.369994498e-11 -0.1047999478)
(-0.0003385294137 8.576729733e-11 -0.1070296039)
(-0.0003265761665 8.784806757e-11 -0.1092437867)
(-0.000313899065 8.994537377e-11 -0.1114434486)
(-0.0003005437992 9.206149677e-11 -0.1136294186)
(-0.0002865468101 9.419763223e-11 -0.1158023528)
(-0.0002719322361 9.635371991e-11 -0.1179626673)
(-0.0002567109927 9.852830385e-11 -0.1201105125)
(-0.0002408803389 1.007185143e-10 -0.1222457587)
(-0.0002244268218 1.029201214e-10 -0.1243680499)
(-0.0002073308322 1.051277278e-10 -0.1264768946)
(-0.0001895750172 1.073350479e-10 -0.1285718395)
(-0.000171153546 1.095352757e-10 -0.1306526676)
(-0.000152082969 1.117214863e-10 -0.1327196372)
(-0.0001324099007 1.138869939e-10 -0.1347736604)
(-0.0001122150977 1.160256596e-10 -0.136816407)
(-9.160944729e-05 1.181321135e-10 -0.1388502311)
(-7.072299423e-05 1.202021919e-10 -0.1408779364)
(-4.968621459e-05 1.222341022e-10 -0.1429023616)
(-2.860531354e-05 1.24231906e-10 -0.1449258279)
)
;

boundaryField
{
    left
    {
        type            fixedValue;
        value           uniform (0 0 0);
    }
    right
    {
        type            fixedValue;
        value           uniform (-1.806351252e-05 1.252224286e-10 -0.1459376752);
    }
    beam
    {
        type            empty;
    }
}


// ************************************************************************* //
