/*--------------------------------*- C++ -*----------------------------------*\
| =========                 |                                                 |
| \\      /  F ield         | foam-extend: Open Source CFD                    |
|  \\    /   O peration     | Version:     4.1                                |
|   \\  /    A nd           | Web:         http://www.foam-extend.org         |
|    \\/     M anipulation  |                                                 |
\*---------------------------------------------------------------------------*/
FoamFile
{
    version     2.0;
    format      ascii;
    class       pointVectorField;
    location    "0";
    object      pointW;
}
// * * * * * * * * * * * * * * * * * * * * * * * * * * * * * * * * * * * * * //

dimensions      [0 1 0 0 0 0 0];

internalField   nonuniform List<vector> 
352
(
(0 0 0)
(0 0 0)
(0 0 0)
(0 0 0)
(0 0 0)
(0 0 0)
(0 0 0)
(0 0 0)
(-5.04496e-36 0 0)
(0 0 0)
(0 0 0)
(0 0 0)
(0 0 0)
(0 0 0)
(0 0 0)
(0 0 0)
(0 1.2326e-32 0)
(0 0 0)
(0 0 0)
(0 0 0)
(0 0 0)
(0 0 0)
(0 0 0)
(0 0 0)
(5.04496e-36 0 0)
(0 0 0)
(0 0 0)
(0 0 0)
(0 0 0)
(0 0 0)
(0 0 0)
(0 0 0)
(-0.0645169 -1.23117 0)
(-0.081935 -1.2298 0)
(-0.0986838 -1.22848 0)
(-0.114119 -1.22727 0)
(-0.127649 -1.2262 0)
(-0.138752 -1.22533 0)
(-0.147003 -1.22468 0)
(-0.152084 -1.22428 0)
(-0.153799 -1.22414 0)
(-0.152084 -1.22428 0)
(-0.147003 -1.22468 0)
(-0.138752 -1.22533 0)
(-0.127649 -1.2262 0)
(-0.114119 -1.22727 0)
(-0.0986838 -1.22848 0)
(-0.081935 -1.2298 0)
(-0.0645169 -1.23117 0)
(-0.0470989 -1.23254 0)
(-0.0303501 -1.23386 0)
(-0.0149144 -1.23507 0)
(-0.00138497 -1.23614 0)
(0.00971843 -1.23701 0)
(0.0179691 -1.23766 0)
(0.0230498 -1.23806 0)
(0.0247652 -1.2382 0)
(0.0230498 -1.23806 0)
(0.0179691 -1.23766 0)
(0.00971843 -1.23701 0)
(-0.00138497 -1.23614 0)
(-0.0149144 -1.23507 0)
(-0.0303501 -1.23386 0)
(-0.0470989 -1.23254 0)
(-0.514223 -4.89433 0)
(-0.54863 -4.88888 0)
(-0.581716 -4.88364 0)
(-0.612207 -4.87881 0)
(-0.638932 -4.87458 0)
(-0.660866 -4.8711 0)
(-0.677164 -4.86852 0)
(-0.6872 -4.86693 0)
(-0.690589 -4.8664 0)
(-0.6872 -4.86693 0)
(-0.677164 -4.86852 0)
(-0.660866 -4.8711 0)
(-0.638932 -4.87458 0)
(-0.612207 -4.87881 0)
(-0.581716 -4.88364 0)
(-0.54863 -4.88888 0)
(-0.514223 -4.89433 0)
(-0.479816 -4.89978 0)
(-0.446731 -4.90502 0)
(-0.41624 -4.90985 0)
(-0.389514 -4.91408 0)
(-0.367581 -4.91755 0)
(-0.351283 -4.92014 0)
(-0.341247 -4.92173 0)
(-0.337858 -4.92226 0)
(-0.341247 -4.92173 0)
(-0.351283 -4.92014 0)
(-0.367581 -4.91755 0)
(-0.389514 -4.91408 0)
(-0.41624 -4.90985 0)
(-0.446731 -4.90502 0)
(-0.479816 -4.89978 0)
(-1.72483 -10.8993 0)
(-1.77538 -10.8872 0)
(-1.82399 -10.8755 0)
(-1.86878 -10.8648 0)
(-1.90805 -10.8553 0)
(-1.94027 -10.8476 0)
(-1.96422 -10.8419 0)
(-1.97896 -10.8383 0)
(-1.98394 -10.8371 0)
(-1.97896 -10.8383 0)
(-1.96422 -10.8419 0)
(-1.94027 -10.8476 0)
(-1.90805 -10.8553 0)
(-1.86878 -10.8648 0)
(-1.82399 -10.8755 0)
(-1.77538 -10.8872 0)
(-1.72483 -10.8993 0)
(-1.67428 -10.9115 0)
(-1.62568 -10.9231 0)
(-1.58088 -10.9339 0)
(-1.54162 -10.9433 0)
(-1.50939 -10.951 0)
(-1.48545 -10.9568 0)
(-1.47071 -10.9603 0)
(-1.46573 -10.9615 0)
(-1.47071 -10.9603 0)
(-1.48545 -10.9568 0)
(-1.50939 -10.951 0)
(-1.54162 -10.9433 0)
(-1.58088 -10.9339 0)
(-1.62568 -10.9231 0)
(-1.67428 -10.9115 0)
(-4.05332 -19.0983 0)
(-4.11876 -19.077 0)
(-4.1817 -19.0566 0)
(-4.23969 -19.0377 0)
(-4.29053 -19.0212 0)
(-4.33225 -19.0077 0)
(-4.36325 -18.9976 0)
(-4.38234 -18.9914 0)
(-4.38879 -18.9893 0)
(-4.38234 -18.9914 0)
(-4.36325 -18.9976 0)
(-4.33225 -19.0077 0)
(-4.29053 -19.0212 0)
(-4.23969 -19.0377 0)
(-4.1817 -19.0566 0)
(-4.11876 -19.077 0)
(-4.05332 -19.0983 0)
(-3.98787 -19.1196 0)
(-3.92494 -19.14 0)
(-3.86694 -19.1588 0)
(-3.81611 -19.1754 0)
(-3.77439 -19.1889 0)
(-3.74339 -19.199 0)
(-3.7243 -19.2052 0)
(-3.71785 -19.2073 0)
(-3.7243 -19.2052 0)
(-3.74339 -19.199 0)
(-3.77439 -19.1889 0)
(-3.81611 -19.1754 0)
(-3.86694 -19.1588 0)
(-3.92494 -19.14 0)
(-3.98787 -19.1196 0)
(-7.8291 -29.2892 0)
(-7.90783 -29.2566 0)
(-7.98354 -29.2253 0)
(-8.05331 -29.1964 0)
(-8.11446 -29.171 0)
(-8.16465 -29.1503 0)
(-8.20195 -29.1348 0)
(-8.22491 -29.1253 0)
(-8.23267 -29.1221 0)
(-8.22491 -29.1253 0)
(-8.20195 -29.1348 0)
(-8.16465 -29.1503 0)
(-8.11446 -29.171 0)
(-8.05331 -29.1964 0)
(-7.98354 -29.2253 0)
(-7.90783 -29.2566 0)
(-7.8291 -29.2892 0)
(-7.75037 -29.3219 0)
(-7.67466 -29.3532 0)
(-7.60489 -29.3821 0)
(-7.54373 -29.4075 0)
(-7.49354 -29.4282 0)
(-7.45625 -29.4437 0)
(-7.43328 -29.4532 0)
(-7.42553 -29.4564 0)
(-7.43328 -29.4532 0)
(-7.45625 -29.4437 0)
(-7.49354 -29.4282 0)
(-7.54373 -29.4075 0)
(-7.60489 -29.3821 0)
(-7.67466 -29.3532 0)
(-7.75037 -29.3219 0)
(-13.346 -41.2214 0)
(-13.4361 -41.1755 0)
(-13.5227 -41.1314 0)
(-13.6026 -41.0907 0)
(-13.6725 -41.0551 0)
(-13.7299 -41.0258 0)
(-13.7726 -41.0041 0)
(-13.7989 -40.9907 0)
(-13.8078 -40.9861 0)
(-13.7989 -40.9907 0)
(-13.7726 -41.0041 0)
(-13.7299 -41.0258 0)
(-13.6725 -41.0551 0)
(-13.6026 -41.0907 0)
(-13.5227 -41.1314 0)
(-13.4361 -41.1755 0)
(-13.346 -41.2214 0)
(-13.2559 -41.2673 0)
(-13.1693 -41.3114 0)
(-13.0895 -41.3521 0)
(-13.0195 -41.3878 0)
(-12.9621 -41.417 0)
(-12.9194 -41.4388 0)
(-12.8932 -41.4522 0)
(-12.8843 -41.4567 0)
(-12.8932 -41.4522 0)
(-12.9194 -41.4388 0)
(-12.9621 -41.417 0)
(-13.0195 -41.3878 0)
(-13.0895 -41.3521 0)
(-13.1693 -41.3114 0)
(-13.2559 -41.2673 0)
(-20.8551 -54.6011 0)
(-20.9543 -54.5403 0)
(-21.0497 -54.4818 0)
(-21.1377 -54.4279 0)
(-21.2147 -54.3807 0)
(-21.278 -54.342 0)
(-21.325 -54.3132 0)
(-21.3539 -54.2954 0)
(-21.3637 -54.2895 0)
(-21.3539 -54.2954 0)
(-21.325 -54.3132 0)
(-21.278 -54.342 0)
(-21.2147 -54.3807 0)
(-21.1377 -54.4279 0)
(-21.0497 -54.4818 0)
(-20.9543 -54.5403 0)
(-20.8551 -54.6011 0)
(-20.7559 -54.6619 0)
(-20.6605 -54.7203 0)
(-20.5726 -54.7742 0)
(-20.4956 -54.8214 0)
(-20.4323 -54.8602 0)
(-20.3853 -54.889 0)
(-20.3564 -54.9067 0)
(-20.3466 -54.9127 0)
(-20.3564 -54.9067 0)
(-20.3853 -54.889 0)
(-20.4323 -54.8602 0)
(-20.4956 -54.8214 0)
(-20.5726 -54.7742 0)
(-20.6605 -54.7203 0)
(-20.7559 -54.6619 0)
(-30.5581 -69.0985 0)
(-30.664 -69.0215 0)
(-30.7658 -68.9475 0)
(-30.8597 -68.8794 0)
(-30.9419 -68.8196 0)
(-31.0094 -68.7706 0)
(-31.0596 -68.7341 0)
(-31.0905 -68.7117 0)
(-31.1009 -68.7041 0)
(-31.0905 -68.7117 0)
(-31.0596 -68.7341 0)
(-31.0094 -68.7706 0)
(-30.9419 -68.8196 0)
(-30.8597 -68.8794 0)
(-30.7658 -68.9475 0)
(-30.664 -69.0215 0)
(-30.5581 -69.0985 0)
(-30.4522 -69.1754 0)
(-30.3504 -69.2494 0)
(-30.2566 -69.3176 0)
(-30.1743 -69.3773 0)
(-30.1068 -69.4264 0)
(-30.0566 -69.4628 0)
(-30.0258 -69.4853 0)
(-30.0153 -69.4928 0)
(-30.0258 -69.4853 0)
(-30.0566 -69.4628 0)
(-30.1068 -69.4264 0)
(-30.1743 -69.3773 0)
(-30.2566 -69.3176 0)
(-30.3504 -69.2494 0)
(-30.4522 -69.1754 0)
(-42.6029 -84.3568 0)
(-42.7129 -84.2628 0)
(-42.8187 -84.1725 0)
(-42.9161 -84.0893 0)
(-43.0015 -84.0163 0)
(-43.0716 -83.9564 0)
(-43.1237 -83.9119 0)
(-43.1558 -83.8846 0)
(-43.1666 -83.8753 0)
(-43.1558 -83.8846 0)
(-43.1237 -83.9119 0)
(-43.0716 -83.9564 0)
(-43.0015 -84.0163 0)
(-42.9161 -84.0893 0)
(-42.8187 -84.1725 0)
(-42.7129 -84.2628 0)
(-42.6029 -84.3568 0)
(-42.493 -84.4507 0)
(-42.3872 -84.541 0)
(-42.2898 -84.6242 0)
(-42.2043 -84.6972 0)
(-42.1342 -84.7571 0)
(-42.0821 -84.8016 0)
(-42.0501 -84.829 0)
(-42.0392 -84.8382 0)
(-42.0501 -84.829 0)
(-42.0821 -84.8016 0)
(-42.1342 -84.7571 0)
(-42.2043 -84.6972 0)
(-42.2898 -84.6242 0)
(-42.3872 -84.541 0)
(-42.493 -84.4507 0)
(-57.0798 -100 0)
(-57.1911 -99.8889 0)
(-57.2982 -99.7818 0)
(-57.3968 -99.6832 0)
(-57.4833 -99.5967 0)
(-57.5543 -99.5257 0)
(-57.6071 -99.4729 0)
(-57.6395 -99.4405 0)
(-57.6505 -99.4295 0)
(-57.6395 -99.4405 0)
(-57.6071 -99.4729 0)
(-57.5543 -99.5257 0)
(-57.4833 -99.5967 0)
(-57.3968 -99.6832 0)
(-57.2982 -99.7818 0)
(-57.1911 -99.8889 0)
(-57.0798 -100 0)
(-56.9684 -100.112 0)
(-56.8614 -100.219 0)
(-56.7627 -100.317 0)
(-56.6762 -100.404 0)
(-56.6052 -100.475 0)
(-56.5525 -100.528 0)
(-56.52 -100.56 0)
(-56.509 -100.571 0)
(-56.52 -100.56 0)
(-56.5525 -100.528 0)
(-56.6052 -100.475 0)
(-56.6762 -100.404 0)
(-56.7627 -100.317 0)
(-56.8614 -100.219 0)
(-56.9684 -100.112 0)
)
;

boundaryField
{
    left
    {
        type            calculated;
    }
    right
    {
        type            calculated;
    }
    beam
    {
        type            empty;
    }
}


// ************************************************************************* //
