/*--------------------------------*- C++ -*----------------------------------*\
| =========                 |                                                 |
| \\      /  F ield         | foam-extend: Open Source CFD                    |
|  \\    /   O peration     | Version:     4.1                                |
|   \\  /    A nd           | Web:         http://www.foam-extend.org         |
|    \\/     M anipulation  |                                                 |
\*---------------------------------------------------------------------------*/
FoamFile
{
    version     2.0;
    format      ascii;
    class       volVectorField;
    location    "0";
    object      refW;
}
// * * * * * * * * * * * * * * * * * * * * * * * * * * * * * * * * * * * * * //

dimensions      [0 1 0 0 0 0 0];

internalField   nonuniform List<vector> 
320
(
(-3.0802e-08 7.52992e-05 0)
(-8.31654e-07 0.000677692 0)
(-3.85024e-06 0.00188247 0)
(-1.05651e-05 0.00368964 0)
(-2.24544e-05 0.00609914 0)
(-4.09968e-05 0.00911101 0)
(-6.76711e-05 0.0127253 0)
(-0.000103955 0.0169419 0)
(-0.000151327 0.0217607 0)
(-0.000211265 0.0271817 0)
(-0.000285248 0.0332051 0)
(-0.000374753 0.0398306 0)
(-0.000481258 0.0470582 0)
(-0.000606243 0.0548881 0)
(-0.000751182 0.0633199 0)
(-0.000917554 0.0723536 0)
(-0.00110684 0.0819896 0)
(-0.00132051 0.0922272 0)
(-0.00156005 0.103067 0)
(-0.00182693 0.114508 0)
(-0.00212264 0.126551 0)
(-0.00244863 0.139196 0)
(-0.0028064 0.152442 0)
(-0.00319743 0.16629 0)
(-0.00362317 0.180739 0)
(-0.00408511 0.195789 0)
(-0.00458474 0.211441 0)
(-0.00512351 0.227693 0)
(-0.00570291 0.244547 0)
(-0.00632442 0.262002 0)
(-0.0069895 0.280057 0)
(-0.00769963 0.298713 0)
(-0.0084563 0.31797 0)
(-0.00926098 0.337828 0)
(-0.0101151 0.358285 0)
(-0.0110202 0.379343 0)
(-0.0119777 0.401001 0)
(-0.0129891 0.423259 0)
(-0.0140558 0.446116 0)
(-0.0151794 0.469574 0)
(-0.0163613 0.49363 0)
(-0.0176031 0.518289 0)
(-0.0189061 0.543546 0)
(-0.0202716 0.569397 0)
(-0.0217015 0.595852 0)
(-0.0231971 0.622906 0)
(-0.0247595 0.650554 0)
(-0.0263909 0.678805 0)
(-0.0280923 0.707654 0)
(-0.0298649 0.737096 0)
(-0.0317108 0.767142 0)
(-0.0336313 0.797785 0)
(-0.0356276 0.829026 0)
(-0.0377014 0.860865 0)
(-0.0398537 0.893294 0)
(-0.0420867 0.926327 0)
(-0.0444015 0.959957 0)
(-0.0467991 0.994176 0)
(-0.0492819 1.029 0)
(-0.0518509 1.06442 0)
(-0.0545076 1.10043 0)
(-0.0572535 1.13704 0)
(-0.0600893 1.17424 0)
(-0.0630177 1.21204 0)
(-0.0660397 1.25044 0)
(-0.069156 1.28942 0)
(-0.0723693 1.32901 0)
(-0.0756806 1.36919 0)
(-0.0790905 1.40996 0)
(-0.0826019 1.45133 0)
(-0.0862155 1.49329 0)
(-0.0899329 1.53585 0)
(-0.0937555 1.579 0)
(-0.0976839 1.62273 0)
(-0.101721 1.66706 0)
(-0.105868 1.71199 0)
(-0.110125 1.7575 0)
(-0.114495 1.80361 0)
(-0.118979 1.85031 0)
(-0.123579 1.89761 0)
(-0.128295 1.94549 0)
(-0.133129 1.99396 0)
(-0.138083 2.04302 0)
(-0.143158 2.09268 0)
(-0.148355 2.14292 0)
(-0.153677 2.19375 0)
(-0.159125 2.24518 0)
(-0.164698 2.29718 0)
(-0.170401 2.34978 0)
(-0.176234 2.40297 0)
(-0.182198 2.45675 0)
(-0.188295 2.51112 0)
(-0.194524 2.56606 0)
(-0.200891 2.6216 0)
(-0.207394 2.67773 0)
(-0.214035 2.73443 0)
(-0.220817 2.79173 0)
(-0.22774 2.84961 0)
(-0.234806 2.90808 0)
(-0.242016 2.96714 0)
(-0.24937 3.02676 0)
(-0.256873 3.08699 0)
(-0.264525 3.14779 0)
(-0.272325 3.20917 0)
(-0.280278 3.27115 0)
(-0.288383 3.3337 0)
(-0.296643 3.39684 0)
(-0.305059 3.46056 0)
(-0.31363 3.52485 0)
(-0.322361 3.58974 0)
(-0.331252 3.6552 0)
(-0.340303 3.72123 0)
(-0.349519 3.78786 0)
(-0.358898 3.85506 0)
(-0.368442 3.92283 0)
(-0.378154 3.9912 0)
(-0.388035 4.06014 0)
(-0.398086 4.12966 0)
(-0.408308 4.19975 0)
(-0.418701 4.27041 0)
(-0.42927 4.34166 0)
(-0.440014 4.41349 0)
(-0.450934 4.48588 0)
(-0.462034 4.55885 0)
(-0.473314 4.63241 0)
(-0.484775 4.70654 0)
(-0.496419 4.78124 0)
(-0.508244 4.8565 0)
(-0.520257 4.93234 0)
(-0.532457 5.00877 0)
(-0.544843 5.08574 0)
(-0.557421 5.16331 0)
(-0.57019 5.24144 0)
(-0.583149 5.32014 0)
(-0.596305 5.39941 0)
(-0.609655 5.47926 0)
(-0.623203 5.55968 0)
(-0.636948 5.64066 0)
(-0.65089 5.7222 0)
(-0.665036 5.80432 0)
(-0.679384 5.88701 0)
(-0.693933 5.97025 0)
(-0.70869 6.05407 0)
(-0.723653 6.13846 0)
(-0.738824 6.22342 0)
(-0.754204 6.30894 0)
(-0.769792 6.395 0)
(-0.785595 6.48165 0)
(-0.801611 6.56886 0)
(-0.817838 6.65662 0)
(-0.834285 6.74495 0)
(-0.85095 6.83385 0)
(-0.86783 6.92329 0)
(-0.884933 7.01331 0)
(-0.902258 7.10389 0)
(-0.919807 7.19503 0)
(-0.937579 7.28673 0)
(-0.955574 7.37897 0)
(-0.9738 7.47179 0)
(-0.992254 7.56516 0)
(-1.01093 7.65907 0)
(-1.02985 7.75356 0)
(-1.049 7.8486 0)
(-1.06838 7.94419 0)
(-1.08799 8.04035 0)
(-1.10784 8.13703 0)
(-1.12794 8.23429 0)
(-1.14827 8.3321 0)
(-1.16883 8.43045 0)
(-1.18965 8.52936 0)
(-1.21071 8.62883 0)
(-1.23201 8.72884 0)
(-1.25356 8.82941 0)
(-1.27535 8.93051 0)
(-1.29739 9.03217 0)
(-1.31969 9.13438 0)
(-1.34223 9.23712 0)
(-1.36503 9.34043 0)
(-1.38808 9.44428 0)
(-1.41139 9.54866 0)
(-1.43495 9.6536 0)
(-1.45878 9.75909 0)
(-1.48286 9.86512 0)
(-1.5072 9.9717 0)
(-1.53181 10.0788 0)
(-1.55668 10.1864 0)
(-1.58181 10.2946 0)
(-1.60721 10.4034 0)
(-1.63288 10.5126 0)
(-1.65881 10.6225 0)
(-1.68502 10.7328 0)
(-1.7115 10.8437 0)
(-1.73825 10.9551 0)
(-1.76528 11.0671 0)
(-1.79258 11.1796 0)
(-1.82015 11.2926 0)
(-1.84801 11.4062 0)
(-1.87614 11.5203 0)
(-1.90456 11.6349 0)
(-1.93326 11.7501 0)
(-1.96224 11.8658 0)
(-1.9915 11.982 0)
(-2.02106 12.0988 0)
(-2.05089 12.2161 0)
(-2.08102 12.3339 0)
(-2.11144 12.4522 0)
(-2.14214 12.5711 0)
(-2.17315 12.6905 0)
(-2.20444 12.8104 0)
(-2.23603 12.9309 0)
(-2.26792 13.0519 0)
(-2.3001 13.1734 0)
(-2.33258 13.2954 0)
(-2.36537 13.4179 0)
(-2.39844 13.541 0)
(-2.43183 13.6646 0)
(-2.46552 13.7887 0)
(-2.49951 13.9133 0)
(-2.53382 14.0384 0)
(-2.56843 14.1641 0)
(-2.60335 14.2903 0)
(-2.63858 14.417 0)
(-2.67412 14.5442 0)
(-2.70997 14.6719 0)
(-2.74614 14.8002 0)
(-2.78262 14.9289 0)
(-2.81942 15.0582 0)
(-2.85654 15.188 0)
(-2.89398 15.3183 0)
(-2.93174 15.4491 0)
(-2.96981 15.5804 0)
(-3.00821 15.7122 0)
(-3.04694 15.8445 0)
(-3.08599 15.9773 0)
(-3.12537 16.1107 0)
(-3.16507 16.2445 0)
(-3.20511 16.3789 0)
(-3.24548 16.5137 0)
(-3.28617 16.6491 0)
(-3.3272 16.7849 0)
(-3.36857 16.9213 0)
(-3.41026 17.0581 0)
(-3.4523 17.1955 0)
(-3.49467 17.3334 0)
(-3.53738 17.4717 0)
(-3.58043 17.6106 0)
(-3.62383 17.7499 0)
(-3.66757 17.8898 0)
(-3.71165 18.0301 0)
(-3.75607 18.1709 0)
(-3.80084 18.3122 0)
(-3.84596 18.4541 0)
(-3.89143 18.5964 0)
(-3.93725 18.7392 0)
(-3.98342 18.8825 0)
(-4.02994 19.0262 0)
(-4.07682 19.1705 0)
(-4.12404 19.3152 0)
(-4.17163 19.4605 0)
(-4.21957 19.6062 0)
(-4.26786 19.7524 0)
(-4.31653 19.8991 0)
(-4.36555 20.0463 0)
(-4.41492 20.1939 0)
(-4.46467 20.3421 0)
(-4.51478 20.4907 0)
(-4.56526 20.6398 0)
(-4.6161 20.7894 0)
(-4.6673 20.9394 0)
(-4.71889 21.0899 0)
(-4.77084 21.2409 0)
(-4.82315 21.3924 0)
(-4.87584 21.5443 0)
(-4.92891 21.6968 0)
(-4.98235 21.8497 0)
(-5.03617 22.003 0)
(-5.09035 22.1568 0)
(-5.14493 22.3112 0)
(-5.19988 22.4659 0)
(-5.2552 22.6212 0)
(-5.31091 22.7769 0)
(-5.36701 22.933 0)
(-5.42349 23.0897 0)
(-5.48036 23.2468 0)
(-5.5376 23.4043 0)
(-5.59524 23.5624 0)
(-5.65327 23.7208 0)
(-5.71167 23.8798 0)
(-5.77048 24.0392 0)
(-5.82968 24.199 0)
(-5.88926 24.3593 0)
(-5.94925 24.5201 0)
(-6.00963 24.6813 0)
(-6.07041 24.843 0)
(-6.13159 25.0051 0)
(-6.19315 25.1677 0)
(-6.25512 25.3307 0)
(-6.3175 25.4942 0)
(-6.38026 25.6581 0)
(-6.44344 25.8225 0)
(-6.50703 25.9874 0)
(-6.57102 26.1526 0)
(-6.63541 26.3184 0)
(-6.7002 26.4845 0)
(-6.76541 26.6511 0)
(-6.83103 26.8182 0)
(-6.89705 26.9856 0)
(-6.96349 27.1536 0)
(-7.03034 27.3219 0)
(-7.0976 27.4907 0)
(-7.16528 27.66 0)
(-7.23338 27.8296 0)
(-7.3019 27.9998 0)
(-7.37083 28.1703 0)
(-7.44017 28.3413 0)
(-7.50995 28.5127 0)
(-7.58014 28.6845 0)
(-7.65075 28.8568 0)
(-7.72179 29.0295 0)
(-7.79325 29.2026 0)
)
;

boundaryField
{
    left
    {
        type            calculated;
        value           uniform (0 0 0);
    }
    right
    {
        type            calculated;
        value           uniform (-7.82914 29.2893 0);
    }
    beam
    {
        type            empty;
    }
}


// ************************************************************************* //
