/*--------------------------------*- C++ -*----------------------------------* \
| =========                 |                                                 |
| \\      /  F ield         | foam-extend: Open Source CFD                    |
|  \\    /   O peration     | Version:     4.0                                |
|   \\  /    A nd           | Web:         http://www.foam-extend.org         |
|    \\/     M anipulation  |                                                 |
\*---------------------------------------------------------------------------*/
FoamFile
{
    version     2.0;
    format      ascii;
    class       volVectorField;
    object      DW;
}
// * * * * * * * * * * * * * * * * * * * * * * * * * * * * * * * * * * * * * //

dimensions      [0 1 0 0 0 0 0];

internalField   uniform (0 0 0);

boundaryField
{
    left
    {
        type fixedValue;
        value uniform (0 0 0);
    }

    right
    {
        type fixedValue;
        // value uniform (0 0 0);
        value uniform (0 0 0);
        // value           nonuniform List<vector> 2((0 -2e-5 0) (0 2e-5 0));
        // value           nonuniform List<vector> 2((0.049 -2e-5 0) (0.049 2e-5 0));
        // value           nonuniform List<vector> 2((0.049 -1.87461e-05 0.00059651) (0.049 1.87461e-05 -0.00059651));
    }
    
    // right
    // {
    //     type axialForceTransverseDisplacement;
    //     refDisp nonuniform List<vector> 2((0 -1.87461e-05 0.00059651) (0 1.87461e-05 -0.00059651));
    //     // refDisp uniform ( 0 0 0 );
    //     value uniform (0 0 0);
    //     axialForce uniform 3119.427;
    // }

    beam
    {
        type empty;
    }
}


// ************************************************************************* //
