/*--------------------------------*- C++ -*----------------------------------*\
| =========                 |                                                 |
| \\      /  F ield         | OpenFOAM: The Open Source CFD Toolbox           |
|  \\    /   O peration     | Version:  2312                                  |
|   \\  /    A nd           | Website:  www.openfoam.com                      |
|    \\/     M anipulation  |                                                 |
\*---------------------------------------------------------------------------*/
FoamFile
{
    version     2.0;
    format      ascii;
    arch        "LSB;label=32;scalar=64";
    class       surfaceVectorField;
    location    "0.21/beam";
    object      Gamma;
}
// * * * * * * * * * * * * * * * * * * * * * * * * * * * * * * * * * * * * * //

dimensions      [0 0 0 0 0 0 0];

oriented        oriented;

internalField   nonuniform List<vector> 
59
(
(0.002849067373 8.489871785e-17 2.477362592e-08)
(0.002849067983 8.460123567e-17 2.490502585e-08)
(0.002849069001 8.410224116e-17 2.511814513e-08)
(0.002849070428 8.339773784e-17 2.540409452e-08)
(0.002849072264 8.248243804e-17 2.575059677e-08)
(0.002849074512 8.135036788e-17 2.614274443e-08)
(0.002849077173 7.999812284e-17 2.656330208e-08)
(0.00284908025 7.842257056e-17 2.699222095e-08)
(0.002849083745 7.662455729e-17 2.740846797e-08)
(0.002849087661 7.460887477e-17 2.779017441e-08)
(0.002849092001 7.238511756e-17 2.811464104e-08)
(0.002849096769 6.996470476e-17 2.836019732e-08)
(0.002849101967 6.736595103e-17 2.850514813e-08)
(0.002849107599 6.46130348e-17 2.853056979e-08)
(0.002849113669 6.173370104e-17 2.84187622e-08)
(0.002849120177 5.875145199e-17 2.815553417e-08)
(0.002849127128 5.570644535e-17 2.772934541e-08)
(0.002849134522 5.263896462e-17 2.713243381e-08)
(0.002849142359 4.957620745e-17 2.636030988e-08)
(0.00284915064 4.655801039e-17 2.541275558e-08)
(0.002849159363 4.361815977e-17 2.429299489e-08)
(0.002849168525 4.079081184e-17 2.300658879e-08)
(0.00284917812 3.811179617e-17 2.156484658e-08)
(0.002849188145 3.560654496e-17 1.99777155e-08)
(0.002849198589 3.330552615e-17 1.826076828e-08)
(0.002849209447 3.123366663e-17 1.64283766e-08)
(0.002849220702 2.941347146e-17 1.449779549e-08)
(0.002849232348 2.786914589e-17 1.248436735e-08)
(0.002849244364 2.663383694e-17 1.040540802e-08)
(0.002849256739 2.564750246e-17 8.275044563e-09)
(0.002849269452 2.496855683e-17 6.108925399e-09)
(0.002849282489 2.4644995e-17 3.918704505e-09)
(0.002849295824 2.459135507e-17 1.717375401e-09)
(0.002849309443 2.478404267e-17 -4.862289149e-10)
(0.002849323317 2.51669922e-17 -2.681802941e-09)
(0.002849337432 2.565315446e-17 -4.8629246e-09)
(0.002849351756 2.611905107e-17 -7.02145716e-09)
(0.002849366273 2.640186249e-17 -9.152260066e-09)
(0.002849380953 2.629556526e-17 -1.124845749e-08)
(0.002849395778 2.55515284e-17 -1.330563657e-08)
(0.002849410717 2.388337615e-17 -1.531730591e-08)
(0.002849425753 2.097483866e-17 -1.727863778e-08)
(0.002849440854 1.650219144e-17 -1.91826912e-08)
(0.002849456005 1.015141313e-17 -2.102496403e-08)
(0.002849471173 1.66442792e-18 -2.279754647e-08)
(0.002849486344 -9.133791374e-18 -2.449569521e-08)
(0.002849501487 -2.22642154e-17 -2.611103996e-08)
(0.002849516588 -3.75664878e-17 -2.763881743e-08)
(0.002849531618 -5.460801358e-17 -2.907090496e-08)
(0.002849546564 -7.266325635e-17 -3.040205844e-08)
(0.0028495614 -9.065620074e-17 -3.162584031e-08)
(0.002849576114 -1.071733882e-16 -3.27378354e-08)
(0.002849590683 -1.204352572e-16 -3.373627237e-08)
(0.002849605097 -1.284824415e-16 -3.463317605e-08)
(0.002849619335 -1.295805037e-16 -3.548725396e-08)
(0.002849633391 -1.237537944e-16 -3.654225669e-08)
(0.002849647246 -1.182490436e-16 -3.875513384e-08)
(0.002849660897 -1.471879062e-16 -4.58587871e-08)
(0.002849674327 -3.397387003e-16 -7.236172827e-08)
)
;

boundaryField
{
    left
    {
        type            calculated;
        value           uniform (-0.002849067169 -4.525721734e-14 -2.472924228e-08);
    }
    right
    {
        type            calculated;
        value           uniform (0.002849687533 -4.639351544e-14 -1.747358717e-07);
    }
    beam
    {
        type            empty;
        value           nonuniform List<vector> 0();
    }
}


// ************************************************************************* //
