/*--------------------------------*- C++ -*----------------------------------*\
| =========                 |                                                 |
| \\      /  F ield         | OpenFOAM: The Open Source CFD Toolbox           |
|  \\    /   O peration     | Version:  2312                                  |
|   \\  /    A nd           | Website:  www.openfoam.com                      |
|    \\/     M anipulation  |                                                 |
\*---------------------------------------------------------------------------*/
FoamFile
{
    version     2.0;
    format      ascii;
    arch        "LSB;label=32;scalar=64";
    class       surfaceVectorField;
    location    "0.21/beam";
    object      K;
}
// * * * * * * * * * * * * * * * * * * * * * * * * * * * * * * * * * * * * * //

dimensions      [0 -1 0 0 0 0 0];

oriented        oriented;

internalField   nonuniform List<vector> 
59
(
(-1.687277992e-17 0.0002747442189 -9.429547845e-13)
(-3.371757125e-17 0.0005504644069 -1.88370482e-12)
(-5.050689974e-17 0.0008280968785 -2.820034102e-12)
(-6.721411911e-17 0.001108499475 -3.749684208e-12)
(-8.381428086e-17 0.001392412557 -4.670343012e-12)
(-1.002835279e-16 0.001680425603 -5.579639363e-12)
(-1.165999918e-16 0.001972949676 -6.475146051e-12)
(-1.327459589e-16 0.002270188899 -7.354405747e-12)
(-1.487038462e-16 0.002572119377 -8.214943579e-12)
(-1.644615379e-16 0.002878479089 -9.054312269e-12)
(-1.800091562e-16 0.003188758637 -9.870150294e-12)
(-1.953363603e-16 0.003502202354 -1.066021121e-11)
(-2.104374901e-16 0.003817813873 -1.142241639e-11)
(-2.253055098e-16 0.004134371376 -1.215491791e-11)
(-2.399360767e-16 0.004450449763 -1.285615802e-11)
(-2.543110758e-16 0.004764446924 -1.352486468e-11)
(-2.684296618e-16 0.005074617926 -1.416012075e-11)
(-2.82281166e-16 0.005379110699 -1.476145104e-11)
(-2.958343143e-16 0.005676005178 -1.532875469e-11)
(-3.09060269e-16 0.005963355168 -1.586230829e-11)
(-3.219179528e-16 0.006239231153 -1.636279447e-11)
(-3.343633476e-16 0.006501745211 -1.683125929e-11)
(-3.463387707e-16 0.006749117347 -1.72691624e-11)
(-3.577834318e-16 0.006979685863 -1.767830474e-11)
(-3.686191357e-16 0.00719191582 -1.806077067e-11)
(-3.787736081e-16 0.007384446239 -1.841896712e-11)
(-3.881538984e-16 0.007556091165 -1.875555905e-11)
(-3.96689421e-16 0.007705846045 -1.907347657e-11)
(-4.043012026e-16 0.007832887182 -1.93759685e-11)
(-4.107671362e-16 0.007936565756 -1.966613e-11)
(-4.161300074e-16 0.008016397913 -1.994704991e-11)
(-4.204483e-16 0.008072051573 -2.022240663e-11)
(-4.2350477e-16 0.008103331276 -2.049566958e-11)
(-4.252357061e-16 0.008110162812 -2.076970568e-11)
(-4.255695477e-16 0.008092578147 -2.104693836e-11)
(-4.244411463e-16 0.008050702062 -2.132899737e-11)
(-4.217826301e-16 0.007984740214 -2.161634342e-11)
(-4.175288695e-16 0.007894971806 -2.190784927e-11)
(-4.11620579e-16 0.007781742929 -2.220033985e-11)
(-4.040038208e-16 0.007645462062 -2.248811705e-11)
(-3.946427911e-16 0.007486598525 -2.276251278e-11)
(-3.835125593e-16 0.007305684073 -2.301151508e-11)
(-3.706282609e-16 0.007103316215 -2.321955816e-11)
(-3.560360302e-16 0.006880155475 -2.336753657e-11)
(-3.398369462e-16 0.006636931819 -2.343316851e-11)
(-3.221794756e-16 0.006374444844 -2.339176754e-11)
(-3.032791959e-16 0.006093567572 -2.32175583e-11)
(-2.833951205e-16 0.005795245218 -2.28855374e-11)
(-2.628468853e-16 0.005480495276 -2.237399177e-11)
(-2.41969642e-16 0.005150408631 -2.16676339e-11)
(-2.210931016e-16 0.004806141843 -2.076117606e-11)
(-2.004750002e-16 0.004448910869 -1.966314586e-11)
(-1.803226832e-16 0.004079966982 -1.83997958e-11)
(-1.606636675e-16 0.003700503938 -1.701813227e-11)
(-1.413074323e-16 0.003311325147 -1.558568094e-11)
(-1.216603125e-16 0.002911559247 -1.417950664e-11)
(-1.004319513e-16 0.002493690887 -1.2836517e-11)
(-7.51290109e-17 0.002024248433 -1.13647294e-11)
(-4.338046769e-17 0.001368806823 -8.668471423e-12)
)
;

boundaryField
{
    left
    {
        type            calculated;
        value           uniform (1.308045581e-33 -5.389958474e-37 -5.485462486e-32);
    }
    right
    {
        type            calculated;
        value           uniform (5.351623986e-31 -2.317278899e-30 9.257117274e-32);
    }
    beam
    {
        type            empty;
        value           nonuniform List<vector> 0();
    }
}


// ************************************************************************* //
