/*--------------------------------*- C++ -*----------------------------------*\
| =========                 |                                                 |
| \\      /  F ield         | OpenFOAM: The Open Source CFD Toolbox           |
|  \\    /   O peration     | Version:  2312                                  |
|   \\  /    A nd           | Website:  www.openfoam.com                      |
|    \\/     M anipulation  |                                                 |
\*---------------------------------------------------------------------------*/
FoamFile
{
    version     2.0;
    format      ascii;
    arch        "LSB;label=32;scalar=64";
    class       surfaceVectorField;
    location    "0.21/beam";
    object      M;
}
// * * * * * * * * * * * * * * * * * * * * * * * * * * * * * * * * * * * * * //

dimensions      [1 2 -2 0 0 0 0];

oriented        oriented;

internalField   nonuniform List<vector> 
59
(
(-5.15875034e-17 1.657218664e-07 -5.667321929e-16)
(-1.031262398e-16 3.320324237e-07 -1.132135291e-15)
(-1.54565011e-16 4.994964438e-07 -1.694873539e-15)
(-2.058469743e-16 6.686313643e-07 -2.253585876e-15)
(-2.569072748e-16 8.398837609e-07 -2.806879257e-15)
(-3.076712092e-16 1.013609198e-06 -3.353325539e-15)
(-3.580530397e-16 1.190055623e-06 -3.891463341e-15)
(-4.07955782e-16 1.369346161e-06 -4.419813727e-15)
(-4.572708217e-16 1.551466399e-06 -4.936887819e-15)
(-5.058794464e-16 1.736258288e-06 -5.441213985e-15)
(-5.536550346e-16 1.923414567e-06 -5.93137284e-15)
(-6.004645534e-16 2.112479429e-06 -6.40601488e-15)
(-6.461713035e-16 2.302851879e-06 -6.863892166e-15)
(-6.906385713e-16 2.493794933e-06 -7.303896141e-15)
(-7.337334871e-16 2.684448991e-06 -7.725093278e-15)
(-7.753283745e-16 2.873847683e-06 -8.126722371e-15)
(-8.153055845e-16 3.060938488e-06 -8.508235975e-15)
(-8.535631766e-16 3.244604266e-06 -8.869352749e-15)
(-8.900141067e-16 3.423686859e-06 -9.210016593e-15)
(-9.245885063e-16 3.59701235e-06 -9.530398402e-15)
(-9.572370346e-16 3.763416882e-06 -9.830913182e-15)
(-9.879303871e-16 3.921761687e-06 -1.011219431e-14)
(-1.016664379e-15 4.070973096e-06 -1.037512354e-14)
(-1.043457428e-15 4.210048797e-06 -1.062078747e-14)
(-1.068348493e-15 4.338062936e-06 -1.085044273e-14)
(-1.091400708e-15 4.454194589e-06 -1.106553936e-14)
(-1.112698576e-15 4.557728406e-06 -1.126768207e-14)
(-1.132348537e-15 4.648058452e-06 -1.145863441e-14)
(-1.150481295e-15 4.724687888e-06 -1.164035107e-14)
(-1.167230273e-15 4.787225352e-06 -1.181469371e-14)
(-1.182737631e-15 4.835378992e-06 -1.198351965e-14)
(-1.197180607e-15 4.8689485e-06 -1.214904029e-14)
(-1.210734625e-15 4.887815979e-06 -1.231334088e-14)
(-1.223554404e-15 4.891936666e-06 -1.247814384e-14)
(-1.235779971e-15 4.881329842e-06 -1.264490454e-14)
(-1.247519393e-15 4.856070774e-06 -1.281460068e-14)
(-1.258830003e-15 4.816283511e-06 -1.298750671e-14)
(-1.269697381e-15 4.762136464e-06 -1.3162942e-14)
(-1.280012002e-15 4.69383839e-06 -1.33389944e-14)
(-1.289544808e-15 4.611635679e-06 -1.351223464e-14)
(-1.297923799e-15 4.515811418e-06 -1.367744776e-14)
(-1.304613826e-15 4.406686353e-06 -1.382740847e-14)
(-1.308904066e-15 4.284620894e-06 -1.395275513e-14)
(-1.309906019e-15 4.15001346e-06 -1.404199845e-14)
(-1.306568852e-15 4.003304356e-06 -1.408174018e-14)
(-1.297714829e-15 3.844975888e-06 -1.405713717e-14)
(-1.282102199e-15 3.675554649e-06 -1.395269258e-14)
(-1.25851572e-15 3.495610782e-06 -1.375337467e-14)
(-1.225891023e-15 3.305758024e-06 -1.344613073e-14)
(-1.183471006e-15 3.10665438e-06 -1.302177177e-14)
(-1.130985692e-15 2.898997473e-06 -1.247712093e-14)
(-1.068845802e-15 2.683520752e-06 -1.181730676e-14)
(-9.983422467e-16 2.460978964e-06 -1.105811304e-14)
(-9.21801497e-16 2.232092168e-06 -1.022779901e-14)
(-8.425743469e-16 1.99734497e-06 -9.366957987e-15)
(-7.644697415e-16 1.756211776e-06 -8.521917165e-15)
(-6.891836188e-16 1.504159431e-06 -7.714866462e-15)
(-6.065051175e-16 1.220998315e-06 -6.830416704e-15)
(-4.591689678e-16 8.256451125e-07 -5.209993391e-15)
)
;

boundaryField
{
    left
    {
        type            calculated;
        value           uniform (-7.157622423e-37 -3.251146641e-40 -3.311741458e-35);
    }
    right
    {
        type            calculated;
        value           uniform (6.480102283e-34 -1.39775019e-33 2.221264983e-36);
    }
    beam
    {
        type            empty;
        value           nonuniform List<vector> 0();
    }
}


// ************************************************************************* //
