/*--------------------------------*- C++ -*----------------------------------*\
| =========                 |                                                 |
| \\      /  F ield         | OpenFOAM: The Open Source CFD Toolbox           |
|  \\    /   O peration     | Version:  2312                                  |
|   \\  /    A nd           | Website:  www.openfoam.com                      |
|    \\/     M anipulation  |                                                 |
\*---------------------------------------------------------------------------*/
FoamFile
{
    version     2.0;
    format      ascii;
    arch        "LSB;label=32;scalar=64";
    class       pointVectorField;
    location    "0.21/beam";
    object      pointW;
}
// * * * * * * * * * * * * * * * * * * * * * * * * * * * * * * * * * * * * * //

dimensions      [0 1 0 0 0 0 0];

internalField   nonuniform List<vector> 
1952
(
(-0.0002768371796 -4.018072901e-15 9.591348582e-06)
(-0.0002715177532 -3.940858057e-15 9.407050816e-06)
(-0.0002557643334 -3.712308239e-15 8.861255122e-06)
(-0.0002301818096 -3.341077415e-15 7.974918596e-06)
(-0.0001957536458 -2.841043373e-15 6.782114506e-06)
(-0.0001538024316 -2.232155433e-15 5.328665518e-06)
(-0.0001059407437 -1.537832361e-15 3.670441239e-06)
(-5.400823429e-05 -7.840950111e-16 1.871178577e-06)
(2.945304197e-13 0 -1.640550823e-14)
(5.400823487e-05 7.840950111e-16 -1.871178609e-06)
(0.0001059407443 1.537832361e-15 -3.670441269e-06)
(0.0001538024321 2.232155433e-15 -5.328665545e-06)
(0.0001957536462 2.841043373e-15 -6.782114529e-06)
(0.0002301818099 3.341077415e-15 -7.974918615e-06)
(0.0002557643336 3.712308239e-15 -8.861255134e-06)
(0.0002715177533 3.940858057e-15 -9.407050822e-06)
(0.0002768371796 4.018072901e-15 -9.591348582e-06)
(0.0002715177532 3.940858057e-15 -9.407050816e-06)
(0.0002557643334 3.712308239e-15 -8.861255122e-06)
(0.0002301818096 3.341077415e-15 -7.974918596e-06)
(0.0001957536458 2.841043373e-15 -6.782114506e-06)
(0.0001538024316 2.232155433e-15 -5.328665518e-06)
(0.0001059407437 1.537832361e-15 -3.670441239e-06)
(5.400823429e-05 7.840950111e-16 -1.871178577e-06)
(-2.945303935e-13 0 1.640550732e-14)
(-5.400823487e-05 -7.840950111e-16 1.871178609e-06)
(-0.0001059407443 -1.537832361e-15 3.670441269e-06)
(-0.0001538024321 -2.232155433e-15 5.328665545e-06)
(-0.0001957536462 -2.841043373e-15 6.782114529e-06)
(-0.0002301818099 -3.341077415e-15 7.974918615e-06)
(-0.0002557643336 -3.712308239e-15 8.861255134e-06)
(-0.0002715177533 -3.940858057e-15 9.407050822e-06)
(-0.000257195055 3.27065634e-12 -0.003063512334)
(-0.0002518751621 3.270733619e-12 -0.003063696664)
(-0.0002361203613 3.270962277e-12 -0.003064242556)
(-0.0002105355946 3.271333725e-12 -0.003065129048)
(-0.0001761044125 3.271833759e-12 -0.003066322061)
(-0.0001341495205 3.272442647e-12 -0.003067775766)
(-8.62836366e-05 3.273137837e-12 -0.003069434281)
(-3.434657427e-05 3.273892442e-12 -0.00307123386)
(1.966639521e-05 3.274676537e-12 -0.003073105367)
(7.367936467e-05 3.275460632e-12 -0.003074976874)
(0.000125616427 3.276214369e-12 -0.003076776453)
(0.0001734823109 3.27690956e-12 -0.003078434968)
(0.0002154372028 3.277518448e-12 -0.003079888672)
(0.0002498683848 3.278018482e-12 -0.003081081686)
(0.0002754531513 3.278389929e-12 -0.003081968178)
(0.0002912079521 3.278618804e-12 -0.003082514069)
(0.0002965278448 3.278696074e-12 -0.003082698399)
(0.000291207952 3.278618804e-12 -0.003082514069)
(0.0002754531511 3.278389929e-12 -0.003081968178)
(0.0002498683845 3.278018482e-12 -0.003081081686)
(0.0002154372024 3.277518448e-12 -0.003079888672)
(0.0001734823104 3.27690956e-12 -0.003078434968)
(0.0001256164264 3.276214369e-12 -0.003076776452)
(7.367936409e-05 3.275460632e-12 -0.003074976874)
(1.966639462e-05 3.274676537e-12 -0.003073105367)
(-3.434657485e-05 3.273892442e-12 -0.00307123386)
(-8.628363715e-05 3.273137837e-12 -0.003069434281)
(-0.000134149521 3.272442647e-12 -0.003067775766)
(-0.000176104413 3.271833759e-12 -0.003066322061)
(-0.000210535595 3.271333725e-12 -0.003065129048)
(-0.0002361203615 3.270962277e-12 -0.003064242556)
(-0.0002518751623 3.270733619e-12 -0.003063696664)
(-0.0002376389564 6.542473996e-12 -0.006137151931)
(-0.0002323176628 6.542551331e-12 -0.006137336359)
(-0.0002165587138 6.542780423e-12 -0.006137882538)
(-0.0001909672108 6.543152738e-12 -0.006138769498)
(-0.000156526963 6.543653206e-12 -0.00613996314)
(-0.0001145610244 6.544262961e-12 -0.006141417611)
(-6.668253753e-05 6.544959019e-12 -0.006143077001)
(-1.473180032e-05 6.545713624e-12 -0.006144877528)
(3.929539062e-05 6.546498586e-12 -0.006146750023)
(9.332258155e-05 6.547283549e-12 -0.006148622517)
(0.0001452733187 6.548039888e-12 -0.006150423044)
(0.0001931518056 6.548735946e-12 -0.006152082434)
(0.0002351177441 6.549345701e-12 -0.006153536905)
(0.0002695579917 6.549846169e-12 -0.006154730547)
(0.0002951494947 6.55021805e-12 -0.006155617507)
(0.0003109084436 6.550447142e-12 -0.006156163686)
(0.000316229737 6.550524501e-12 -0.006156348114)
(0.0003109084435 6.550447142e-12 -0.006156163686)
(0.0002951494944 6.55021805e-12 -0.006155617507)
(0.0002695579914 6.549846169e-12 -0.006154730547)
(0.0002351177437 6.549345701e-12 -0.006153536905)
(0.0001931518051 6.548735946e-12 -0.006152082434)
(0.0001452733182 6.548039888e-12 -0.006150423044)
(9.332258097e-05 6.547283549e-12 -0.006148622516)
(3.929539003e-05 6.546498586e-12 -0.006146750022)
(-1.473180089e-05 6.545713624e-12 -0.006144877528)
(-6.668253808e-05 6.544959019e-12 -0.006143077001)
(-0.0001145610249 6.544262961e-12 -0.006141417611)
(-0.0001565269634 6.543653206e-12 -0.00613996314)
(-0.0001909672111 6.543152738e-12 -0.006138769498)
(-0.000216558714 6.542780423e-12 -0.006137882538)
(-0.000232317663 6.542551331e-12 -0.006137336359)
(-0.0002182066923 9.810586036e-12 -0.009211868605)
(-0.0002128830588 9.810663566e-12 -0.009212053195)
(-0.00019711718 9.810893417e-12 -0.009212599856)
(-0.0001715144234 9.811265949e-12 -0.009213487596)
(-0.0001370590309 9.811767718e-12 -0.00921468229)
(-9.50746383e-05 9.812379208e-12 -0.009216138042)
(-4.71750974e-05 9.813076567e-12 -0.009217798894)
(4.798484543e-06 9.813832906e-12 -0.009219601007)
(5.884943331e-05 9.814619603e-12 -0.00922147515)
(0.0001129003821 9.8154063e-12 -0.009223349293)
(0.000164873964 9.816164374e-12 -0.009225151407)
(0.0002127735048 9.816861733e-12 -0.009226812258)
(0.0002547578974 9.817473223e-12 -0.00922826801)
(0.0002892132897 9.817974992e-12 -0.009229462704)
(0.0003148160462 9.818347524e-12 -0.009230350445)
(0.000330581925 9.818576941e-12 -0.009230897105)
(0.0003359055584 9.818654514e-12 -0.009231081695)
(0.0003305819248 9.818576941e-12 -0.009230897105)
(0.000314816046 9.818347524e-12 -0.009230350445)
(0.0002892132894 9.817974992e-12 -0.009229462704)
(0.000254757897 9.817473223e-12 -0.00922826801)
(0.0002127735043 9.816861733e-12 -0.009226812258)
(0.0001648739634 9.816164374e-12 -0.009225151407)
(0.0001129003815 9.8154063e-12 -0.009223349293)
(5.884943272e-05 9.814619603e-12 -0.00922147515)
(4.798483967e-06 9.813832906e-12 -0.009219601007)
(-4.717509794e-05 9.813076567e-12 -0.009217798894)
(-9.507463879e-05 9.812379208e-12 -0.009216138042)
(-0.0001370590313 9.811767718e-12 -0.00921468229)
(-0.0001715144237 9.811265949e-12 -0.009213487596)
(-0.0001971171802 9.810893417e-12 -0.009212599856)
(-0.0002128830589 9.810663566e-12 -0.009212053195)
(-0.000198936527 1.30731523e-11 -0.01228820722)
(-0.0001936096063 1.307323011e-11 -0.01228839203)
(-0.0001778339925 1.30734605e-11 -0.01228893937)
(-0.000152215427 1.307383412e-11 -0.01228982821)
(-0.0001177387594 1.307433762e-11 -0.01229102438)
(-7.572844274e-05 1.307495084e-11 -0.01229248193)
(-2.779932534e-05 1.307565037e-11 -0.01229414484)
(2.420634869e-05 1.307640975e-11 -0.01229594918)
(7.829067226e-05 1.307719905e-11 -0.01229782564)
(0.0001323749958 1.307798835e-11 -0.0122997021)
(0.0001843806698 1.307874772e-11 -0.01230150645)
(0.0002323097872 1.307944725e-11 -0.01230316935)
(0.0002743201038 1.308006047e-11 -0.0123046269)
(0.0003087967713 1.308056398e-11 -0.01230582308)
(0.0003344153367 1.308093803e-11 -0.01230671191)
(0.0003501909504 1.30811682e-11 -0.01230725925)
(0.000355517871 1.308124598e-11 -0.01230744407)
(0.0003501909503 1.30811682e-11 -0.01230725925)
(0.0003344153365 1.308093803e-11 -0.01230671191)
(0.000308796771 1.308056398e-11 -0.01230582308)
(0.0002743201034 1.308006047e-11 -0.0123046269)
(0.0002323097867 1.307944725e-11 -0.01230316935)
(0.0001843806693 1.307874772e-11 -0.01230150645)
(0.0001323749952 1.307798835e-11 -0.0122997021)
(7.829067167e-05 1.307719905e-11 -0.01229782564)
(2.420634812e-05 1.307640975e-11 -0.01229594918)
(-2.779932588e-05 1.307565037e-11 -0.01229414484)
(-7.572844322e-05 1.307495084e-11 -0.01229248193)
(-0.0001177387599 1.307433762e-11 -0.01229102438)
(-0.0001522154273 1.307383412e-11 -0.01228982821)
(-0.0001778339928 1.30734605e-11 -0.01228893937)
(-0.0001936096065 1.307323011e-11 -0.01228839203)
(-0.0001798672988 1.632834576e-11 -0.01536671798)
(-0.0001745361331 1.632842386e-11 -0.01536690309)
(-0.0001587479476 1.632865501e-11 -0.0153674513)
(-0.0001331089667 1.632903058e-11 -0.01536834156)
(-9.860482459e-05 1.632953581e-11 -0.01536953964)
(-5.656102981e-05 1.633015164e-11 -0.01537099952)
(-8.593717645e-06 1.63308542e-11 -0.01537266508)
(4.345339978e-05 1.633161661e-11 -0.01537447231)
(9.758082321e-05 1.633240938e-11 -0.01537635176)
(0.0001517082466 1.633320215e-11 -0.01537823122)
(0.000203755364 1.63339637e-11 -0.01538003844)
(0.0002517226761 1.633466626e-11 -0.015381704)
(0.0002937664708 1.633528209e-11 -0.01538316388)
(0.0003282706128 1.633578732e-11 -0.01538436196)
(0.0003539095937 1.633616246e-11 -0.01538525222)
(0.000369697779 1.633639383e-11 -0.01538580043)
(0.0003750289446 1.633647192e-11 -0.01538598554)
(0.0003696977789 1.633639383e-11 -0.01538580043)
(0.0003539095935 1.633616246e-11 -0.01538525222)
(0.0003282706125 1.633578732e-11 -0.01538436196)
(0.0002937664704 1.633528209e-11 -0.01538316388)
(0.0002517226756 1.633466626e-11 -0.015381704)
(0.0002037553635 1.63339637e-11 -0.01538003844)
(0.0001517082461 1.633320215e-11 -0.01537823122)
(9.758082262e-05 1.633240938e-11 -0.01537635176)
(4.345339921e-05 1.633161661e-11 -0.01537447231)
(-8.593718186e-06 1.63308542e-11 -0.01537266508)
(-5.65610303e-05 1.633015164e-11 -0.01537099952)
(-9.8604825e-05 1.632953581e-11 -0.01536953964)
(-0.000133108967 1.632903058e-11 -0.01536834156)
(-0.0001587479479 1.632865501e-11 -0.0153674513)
(-0.0001745361332 1.632842386e-11 -0.01536690309)
(-0.0001610385187 1.957435711e-11 -0.01844795791)
(-0.0001557021372 1.957443561e-11 -0.01844814339)
(-0.0001398985053 1.957466784e-11 -0.01844869267)
(-0.0001142344402 1.957504514e-11 -0.01844958468)
(-7.96965407e-05 1.957555298e-11 -0.01845078511)
(-3.761161203e-05 1.957617141e-11 -0.01845224785)
(1.040262935e-05 1.957687745e-11 -0.01845391667)
(6.25006675e-05 1.957764419e-11 -0.01845572744)
(0.0001166810469 1.957844043e-11 -0.01845761058)
(0.0001708614264 1.957923667e-11 -0.01845949372)
(0.0002229594645 1.958000255e-11 -0.01846130448)
(0.0002709737058 1.958070858e-11 -0.01846297331)
(0.0003130586344 1.958132701e-11 -0.01846443605)
(0.0003475965338 1.958183485e-11 -0.01846563648)
(0.0003732605988 1.958221215e-11 -0.01846652848)
(0.0003890642306 1.958244461e-11 -0.01846707776)
(0.000394400612 1.958252304e-11 -0.01846726324)
(0.0003890642305 1.958244461e-11 -0.01846707776)
(0.0003732605986 1.958221215e-11 -0.01846652848)
(0.0003475965335 1.958183485e-11 -0.01846563648)
(0.000313058634 1.958132701e-11 -0.01846443605)
(0.0002709737053 1.958070858e-11 -0.01846297331)
(0.0002229594639 1.958000255e-11 -0.01846130448)
(0.0001708614258 1.957923667e-11 -0.01845949372)
(0.0001166810464 1.957844043e-11 -0.01845761058)
(6.250066693e-05 1.957764419e-11 -0.01845572744)
(1.040262881e-05 1.957687745e-11 -0.01845391667)
(-3.761161252e-05 1.957617141e-11 -0.01845224785)
(-7.969654112e-05 1.957555298e-11 -0.01845078511)
(-0.0001142344405 1.957504514e-11 -0.01844958468)
(-0.0001398985055 1.957466784e-11 -0.01844869267)
(-0.0001557021373 1.957443561e-11 -0.01844814339)
(-0.0001424904436 2.280939936e-11 -0.02153249196)
(-0.000137147861 2.280947826e-11 -0.02153267787)
(-0.0001213258644 2.280971202e-11 -0.02153322843)
(-9.563197628e-05 2.281009149e-11 -0.02153412251)
(-6.10539419e-05 2.281060193e-11 -0.02153532574)
(-1.892010828e-05 2.281122426e-11 -0.02153679188)
(2.914992822e-05 2.28119342e-11 -0.0215384646)
(8.130850708e-05 2.281270485e-11 -0.02154027958)
(0.000135551847 2.281350629e-11 -0.0215421671)
(0.000189795187 2.281430773e-11 -0.02154405463)
(0.0002419537658 2.281507752e-11 -0.02154586961)
(0.0002900238022 2.281578745e-11 -0.02154754232)
(0.0003321576358 2.281640979e-11 -0.02154900846)
(0.0003667356701 2.281692023e-11 -0.02155021169)
(0.0003924295581 2.28172997e-11 -0.02155110577)
(0.0004082515546 2.281753345e-11 -0.02155165633)
(0.0004135941371 2.281761243e-11 -0.02155184224)
(0.0004082515544 2.281753345e-11 -0.02155165633)
(0.0003924295579 2.28172997e-11 -0.02155110577)
(0.0003667356698 2.281692023e-11 -0.02155021169)
(0.0003321576354 2.281640979e-11 -0.02154900846)
(0.0002900238018 2.281578745e-11 -0.02154754232)
(0.0002419537653 2.281507752e-11 -0.02154586961)
(0.0001897951864 2.281430773e-11 -0.02154405463)
(0.0001355518464 2.281350629e-11 -0.0215421671)
(8.130850651e-05 2.281270485e-11 -0.02154027958)
(2.914992768e-05 2.28119342e-11 -0.0215384646)
(-1.892010877e-05 2.281122426e-11 -0.02153679188)
(-6.105394231e-05 2.281060193e-11 -0.02153532574)
(-9.56319766e-05 2.281009149e-11 -0.02153412251)
(-0.0001213258646 2.280971202e-11 -0.02153322843)
(-0.0001371478611 2.280947826e-11 -0.02153267787)
(-0.0001242641194 2.603171266e-11 -0.02462089382)
(-0.0001189143345 2.603179206e-11 -0.02462108023)
(-0.0001030710088 2.603202723e-11 -0.02462163228)
(-7.734248363e-05 2.603240973e-11 -0.02462252877)
(-4.271783573e-05 2.603292365e-11 -0.02462373525)
(-5.272028561e-07 2.603354988e-11 -0.02462520535)
(4.760763531e-05 2.603426459e-11 -0.02462688258)
(9.983652746e-05 2.603503958e-11 -0.02462870247)
(0.0001541529911 2.603584622e-11 -0.02463059509)
(0.0002084694547 2.603665287e-11 -0.02463248771)
(0.0002606983468 2.603742872e-11 -0.0246343076)
(0.0003088331849 2.603814343e-11 -0.02463598483)
(0.0003510238177 2.603876966e-11 -0.02463745493)
(0.0003856484656 2.603928358e-11 -0.02463866141)
(0.0004113769907 2.603966565e-11 -0.0246395579)
(0.0004272203163 2.603990081e-11 -0.02464010995)
(0.000432570101 2.603998025e-11 -0.02464029636)
(0.0004272203162 2.603990081e-11 -0.02464010995)
(0.0004113769904 2.603966565e-11 -0.0246395579)
(0.0003856484652 2.603928358e-11 -0.02463866141)
(0.0003510238173 2.603876966e-11 -0.02463745493)
(0.0003088331845 2.603814343e-11 -0.02463598483)
(0.0002606983463 2.603742872e-11 -0.0246343076)
(0.0002084694541 2.603665287e-11 -0.02463248771)
(0.0001541529905 2.603584622e-11 -0.02463059509)
(9.983652689e-05 2.603503958e-11 -0.02462870247)
(4.760763477e-05 2.603426459e-11 -0.02462688258)
(-5.272033372e-07 2.603354988e-11 -0.02462520535)
(-4.271783613e-05 2.603292365e-11 -0.02462373525)
(-7.734248395e-05 2.603240973e-11 -0.02462252877)
(-0.0001030710091 2.603202723e-11 -0.02462163228)
(-0.0001189143347 2.603179206e-11 -0.02462108023)
(-0.0001064013965 2.923956908e-11 -0.02771374628)
(-0.0001010433925 2.923964911e-11 -0.02771393326)
(-8.517572601e-05 2.92398859e-11 -0.02771448701)
(-5.940767293e-05 2.924027123e-11 -0.02771538626)
(-2.472982963e-05 2.924078904e-11 -0.02771659645)
(1.752562259e-05 2.924142048e-11 -0.02771807109)
(6.573441245e-05 2.924214039e-11 -0.02771975348)
(0.0001180435462 2.924292145e-11 -0.02772157897)
(0.0001724434586 2.924373417e-11 -0.02772347742)
(0.000226843371 2.924454689e-11 -0.02772537587)
(0.0002791525047 2.924532795e-11 -0.02772720135)
(0.0003273612945 2.924604786e-11 -0.02772888375)
(0.0003696167467 2.92466793e-11 -0.02773035838)
(0.0004042945899 2.924719711e-11 -0.02773156857)
(0.0004300626429 2.924758157e-11 -0.02773246782)
(0.0004459303093 2.924781858e-11 -0.02773302157)
(0.0004512883131 2.924789861e-11 -0.02773320856)
(0.0004459303092 2.924781858e-11 -0.02773302157)
(0.0004300626427 2.924758157e-11 -0.02773246782)
(0.0004042945896 2.924719711e-11 -0.02773156857)
(0.0003696167463 2.92466793e-11 -0.02773035838)
(0.0003273612941 2.924604786e-11 -0.02772888375)
(0.0002791525042 2.924532795e-11 -0.02772720135)
(0.0002268433705 2.924454689e-11 -0.02772537587)
(0.000172443458 2.924373417e-11 -0.02772347742)
(0.0001180435456 2.924292145e-11 -0.02772157897)
(6.573441192e-05 2.924214039e-11 -0.02771975348)
(1.752562211e-05 2.924142048e-11 -0.02771807109)
(-2.472983004e-05 2.924078904e-11 -0.02771659645)
(-5.940767325e-05 2.924027123e-11 -0.02771538626)
(-8.517572623e-05 2.92398859e-11 -0.02771448701)
(-0.0001010433926 2.923964911e-11 -0.02771393326)
(-8.894491168e-05 3.243127746e-11 -0.03081164122)
(-8.357765621e-05 3.243135805e-11 -0.03081182885)
(-6.76825914e-05 3.243159712e-11 -0.03081238451)
(-4.187004528e-05 3.243198548e-11 -0.03081328688)
(-7.132324639e-06 3.243250763e-11 -0.03081450126)
(3.519608899e-05 3.243314384e-11 -0.03081598099)
(8.348811974e-05 3.243386983e-11 -0.03081766921)
(0.0001358875743 3.243465739e-11 -0.03081950101)
(0.0001903814177 3.243547705e-11 -0.03082140603)
(0.0002448752611 3.24362967e-11 -0.03082331105)
(0.0002972747156 3.243708427e-11 -0.03082514286)
(0.0003455667463 3.243781025e-11 -0.03082683107)
(0.0003878951599 3.243844646e-11 -0.03082831081)
(0.0004226328804 3.243896861e-11 -0.03082952519)
(0.0004484454264 3.243935654e-11 -0.03083042755)
(0.0004643404911 3.243959561e-11 -0.03083098322)
(0.0004697077465 3.243967634e-11 -0.03083117085)
(0.000464340491 3.243959561e-11 -0.03083098322)
(0.0004484454262 3.243935654e-11 -0.03083042755)
(0.0004226328801 3.243896861e-11 -0.03082952519)
(0.0003878951594 3.243844646e-11 -0.03082831081)
(0.0003455667458 3.243781025e-11 -0.03082683107)
(0.0002972747151 3.243708427e-11 -0.03082514286)
(0.0002448752605 3.24362967e-11 -0.03082331105)
(0.0001903814171 3.243547705e-11 -0.03082140603)
(0.0001358875737 3.243465739e-11 -0.03081950101)
(8.348811921e-05 3.243386983e-11 -0.03081766921)
(3.519608851e-05 3.243314384e-11 -0.03081598099)
(-7.132325044e-06 3.243250763e-11 -0.03081450126)
(-4.18700456e-05 3.243198548e-11 -0.03081328688)
(-6.768259162e-05 3.243159712e-11 -0.03081238451)
(-8.357765633e-05 3.243135805e-11 -0.03081182885)
(-7.193803518e-05 3.560518819e-11 -0.03391517907)
(-6.656048163e-05 3.56052696e-11 -0.03391536742)
(-5.063491917e-05 3.560551073e-11 -0.03391592523)
(-2.477284686e-05 3.560590234e-11 -0.03391683106)
(1.003152459e-05 3.560642926e-11 -0.03391805011)
(5.244115319e-05 3.560707154e-11 -0.03391953554)
(0.0001008258412 3.560780447e-11 -0.03392123024)
(0.0001533258339 3.56085994e-11 -0.03392306909)
(0.0002079242339 3.5609426e-11 -0.03392498144)
(0.0002625226339 3.561025259e-11 -0.03392689379)
(0.0003150226266 3.561104753e-11 -0.03392873264)
(0.0003634073146 3.561178045e-11 -0.03393042734)
(0.0004058169431 3.561242273e-11 -0.03393191277)
(0.0004406213145 3.561294966e-11 -0.03393313182)
(0.0004664833867 3.561334127e-11 -0.03393403765)
(0.000482408949 3.56135824e-11 -0.03393459546)
(0.0004877865025 3.561366383e-11 -0.03393478381)
(0.0004824089489 3.56135824e-11 -0.03393459546)
(0.0004664833865 3.561334127e-11 -0.03393403765)
(0.0004406213141 3.561294966e-11 -0.03393313182)
(0.0004058169427 3.561242273e-11 -0.03393191277)
(0.0003634073141 3.561178045e-11 -0.03393042734)
(0.0003150226261 3.561104753e-11 -0.03392873264)
(0.0002625226334 3.561025259e-11 -0.03392689379)
(0.0002079242334 3.5609426e-11 -0.03392498144)
(0.0001533258334 3.56085994e-11 -0.03392306909)
(0.0001008258407 3.560780447e-11 -0.03392123024)
(5.244115271e-05 3.560707154e-11 -0.03391953554)
(1.003152419e-05 3.560642926e-11 -0.03391805011)
(-2.477284718e-05 3.560590234e-11 -0.03391683106)
(-5.063491939e-05 3.560551073e-11 -0.03391592523)
(-6.656048174e-05 3.56052696e-11 -0.03391536742)
(-5.542478705e-05 3.875969784e-11 -0.03702496782)
(-5.003587686e-05 3.875978022e-11 -0.03702515697)
(-3.407668184e-05 3.876002362e-11 -0.03702571714)
(-8.159992457e-06 3.876041892e-11 -0.03702662681)
(2.671788095e-05 3.876095148e-11 -0.03702785102)
(6.921707275e-05 3.876159983e-11 -0.03702934273)
(0.0001177039425 3.876233969e-11 -0.03703104462)
(0.0001703148078 3.876314287e-11 -0.03703289125)
(0.000225028512 3.876397814e-11 -0.03703481169)
(0.0002797422161 3.876481341e-11 -0.03703673213)
(0.0003323530815 3.876561572e-11 -0.03703857877)
(0.0003808399511 3.876635558e-11 -0.03704028065)
(0.0004233391429 3.876700393e-11 -0.03704177237)
(0.0004582170162 3.876753649e-11 -0.03704299657)
(0.0004841337055 3.876793179e-11 -0.03704390625)
(0.0005000929004 3.876817541e-11 -0.03704446641)
(0.0005054818105 3.876825759e-11 -0.03704465556)
(0.0005000929003 3.876817541e-11 -0.03704446641)
(0.0004841337052 3.876793179e-11 -0.03704390625)
(0.0004582170159 3.876753649e-11 -0.03704299657)
(0.0004233391425 3.876700393e-11 -0.03704177237)
(0.0003808399507 3.876635558e-11 -0.03704028065)
(0.0003323530809 3.876561572e-11 -0.03703857877)
(0.0002797422156 3.876481341e-11 -0.03703673213)
(0.0002250285114 3.876397814e-11 -0.03703481169)
(0.0001703148073 3.876314287e-11 -0.03703289125)
(0.0001177039419 3.876233969e-11 -0.03703104462)
(6.921707228e-05 3.876159983e-11 -0.03702934273)
(2.671788055e-05 3.876095148e-11 -0.03702785102)
(-8.159992771e-06 3.876041892e-11 -0.03702662681)
(-3.407668206e-05 3.876002362e-11 -0.03702571714)
(-5.003587697e-05 3.875978022e-11 -0.03702515697)
(-3.944971668e-05 4.189325359e-11 -0.04014162154)
(-3.404838229e-05 4.189333678e-11 -0.04014181157)
(-1.805239316e-05 4.189358279e-11 -0.04014237432)
(7.924047466e-06 4.189398264e-11 -0.0401432882)
(4.288233223e-05 4.18945204e-11 -0.04014451806)
(8.547950642e-05 4.189517613e-11 -0.04014601667)
(0.0001340781632 4.18959238e-11 -0.04014772642)
(0.0001868103235 4.189673521e-11 -0.04014958159)
(0.0002416501708 4.189757916e-11 -0.04015151091)
(0.0002964900181 4.18984231e-11 -0.04015344023)
(0.0003492221784 4.189923452e-11 -0.0401552954)
(0.0003978208351 4.189998218e-11 -0.04015700515)
(0.0004404180092 4.190063791e-11 -0.04015850376)
(0.0004753762939 4.190117567e-11 -0.04015973362)
(0.0005013527344 4.190157553e-11 -0.0401606475)
(0.0005173487235 4.190182175e-11 -0.04016121025)
(0.0005227500577 4.190190475e-11 -0.04016140028)
(0.0005173487233 4.190182175e-11 -0.04016121025)
(0.0005013527342 4.190157553e-11 -0.0401606475)
(0.0004753762936 4.190117567e-11 -0.04015973362)
(0.0004404180088 4.190063791e-11 -0.04015850376)
(0.0003978208346 4.189998218e-11 -0.04015700515)
(0.0003492221778 4.189923452e-11 -0.0401552954)
(0.0002964900175 4.18984231e-11 -0.04015344023)
(0.0002416501702 4.189757916e-11 -0.04015151091)
(0.000186810323 4.189673521e-11 -0.04014958159)
(0.0001340781627 4.18959238e-11 -0.04014772642)
(8.547950596e-05 4.189517613e-11 -0.04014601667)
(4.288233183e-05 4.18945204e-11 -0.04014451806)
(7.924047154e-06 4.189398264e-11 -0.0401432882)
(-1.805239337e-05 4.189358279e-11 -0.04014237432)
(-3.40483824e-05 4.189333678e-11 -0.04014181157)
(-2.405775663e-05 4.500435728e-11 -0.04326575842)
(-1.864292523e-05 4.500444125e-11 -0.0432659494)
(-2.606964835e-06 4.50046903e-11 -0.04326651497)
(2.34343865e-05 4.50050947e-11 -0.04326743343)
(5.848002608e-05 4.500563897e-11 -0.04326866945)
(0.0001011836434 4.500630207e-11 -0.04327017557)
(0.0001499037399 4.500705841e-11 -0.04327189389)
(0.000202767669 4.50078785e-11 -0.04327375835)
(0.0002577445517 4.500873198e-11 -0.04327569734)
(0.0003127214344 4.500958547e-11 -0.04327763632)
(0.0003655853634 4.501040643e-11 -0.04327950078)
(0.0004143054599 4.501116277e-11 -0.0432812191)
(0.0004570090772 4.501182586e-11 -0.04328272522)
(0.0004920547167 4.501237013e-11 -0.04328396124)
(0.0005180960679 4.501277411e-11 -0.0432848797)
(0.0005341320282 4.501302293e-11 -0.04328544527)
(0.0005395468595 4.501310702e-11 -0.04328563625)
(0.0005341320281 4.501302293e-11 -0.04328544527)
(0.0005180960677 4.501277411e-11 -0.0432848797)
(0.0004920547163 4.501237013e-11 -0.04328396124)
(0.0004570090768 4.501182586e-11 -0.04328272522)
(0.0004143054595 4.501116277e-11 -0.0432812191)
(0.0003655853629 4.501040643e-11 -0.04327950078)
(0.0003127214339 4.500958547e-11 -0.04327763632)
(0.0002577445511 4.500873198e-11 -0.04327569734)
(0.0002027676684 4.50078785e-11 -0.04327375835)
(0.0001499037394 4.500705841e-11 -0.04327189389)
(0.0001011836429 4.500630207e-11 -0.04327017557)
(5.848002568e-05 4.500563897e-11 -0.04326866945)
(2.343438619e-05 4.50050947e-11 -0.04326743343)
(-2.606965048e-06 4.50046903e-11 -0.04326651497)
(-1.864292534e-05 4.500444125e-11 -0.0432659494)
(-9.294041714e-06 4.809156897e-11 -0.0463979984)
(-3.864639734e-06 4.809165403e-11 -0.04639819041)
(1.221447125e-05 4.809190589e-11 -0.04639875904)
(3.832589633e-05 4.809231485e-11 -0.04639968245)
(7.346583897e-05 4.809286563e-11 -0.04640092514)
(0.0001162843659 4.809353653e-11 -0.04640243939)
(0.0001651355616 4.809430198e-11 -0.04640416697)
(0.0002181417403 4.809513291e-11 -0.0464060415)
(0.0002732665584 4.80959968e-11 -0.04640799095)
(0.0003283913765 4.80968607e-11 -0.04640994039)
(0.0003813975551 4.809769076e-11 -0.04641181492)
(0.0004302487508 4.809845621e-11 -0.0464135425)
(0.0004730672777 4.809912711e-11 -0.04641505675)
(0.0005082072202 4.809967789e-11 -0.04641629944)
(0.0005343186452 4.810008728e-11 -0.04641722286)
(0.0005503977561 4.810033914e-11 -0.04641779148)
(0.000555827158 4.81004243e-11 -0.04641798349)
(0.000550397756 4.810033914e-11 -0.04641779148)
(0.000534318645 4.810008728e-11 -0.04641722286)
(0.0005082072199 4.809967789e-11 -0.04641629944)
(0.0004730672773 4.809912711e-11 -0.04641505675)
(0.0004302487503 4.809845621e-11 -0.0464135425)
(0.0003813975546 4.809769076e-11 -0.04641181492)
(0.0003283913759 4.80968607e-11 -0.04640994039)
(0.0002732665578 4.80959968e-11 -0.04640799095)
(0.0002181417398 4.809513291e-11 -0.0464060415)
(0.0001651355611 4.809430198e-11 -0.04640416697)
(0.0001162843654 4.809353653e-11 -0.04640243939)
(7.346583858e-05 4.809286563e-11 -0.04640092514)
(3.832589602e-05 4.809231485e-11 -0.04639968245)
(1.221447104e-05 4.809190589e-11 -0.04639875904)
(-3.864639842e-06 4.809165403e-11 -0.04639819041)
(4.796292276e-06 5.115351012e-11 -0.0495389604)
(1.024133401e-05 5.115359622e-11 -0.04953915352)
(2.636676196e-05 5.115385155e-11 -0.04953972543)
(5.255340275e-05 5.115426529e-11 -0.04954065417)
(8.779456836e-05 5.1154823e-11 -0.04954190405)
(0.0001307364369 5.115550258e-11 -0.04954342704)
(0.0001797283518 5.115627756e-11 -0.04954516461)
(0.0002328872184 5.115711847e-11 -0.04954704996)
(0.0002881708272 5.115799364e-11 -0.04954901067)
(0.000343454436 5.115886881e-11 -0.04955097137)
(0.0003966133025 5.115970972e-11 -0.04955285673)
(0.0004456052174 5.11604847e-11 -0.04955459429)
(0.0004885470859 5.116116428e-11 -0.04955611728)
(0.0005237882514 5.116172199e-11 -0.04955736716)
(0.0005499748921 5.116213659e-11 -0.04955829591)
(0.0005661003199 5.116239171e-11 -0.04955886782)
(0.0005715453616 5.116247785e-11 -0.04955906093)
(0.0005661003198 5.116239171e-11 -0.04955886782)
(0.0005499748919 5.116213659e-11 -0.04955829591)
(0.0005237882511 5.116172199e-11 -0.04955736716)
(0.0004885470855 5.116116428e-11 -0.04955611728)
(0.0004456052169 5.11604847e-11 -0.04955459429)
(0.000396613302 5.115970972e-11 -0.04955285673)
(0.0003434544355 5.115886881e-11 -0.04955097137)
(0.0002881708266 5.115799364e-11 -0.04954901067)
(0.0002328872178 5.115711847e-11 -0.04954704996)
(0.0001797283513 5.115627756e-11 -0.04954516461)
(0.0001307364365 5.115550258e-11 -0.04954342704)
(8.779456797e-05 5.1154823e-11 -0.04954190405)
(5.255340245e-05 5.115426529e-11 -0.04954065417)
(2.636676175e-05 5.115385155e-11 -0.04953972543)
(1.024133391e-05 5.115359622e-11 -0.04953915352)
(1.816833564e-05 5.418886593e-11 -0.05268925917)
(2.363007624e-05 5.418895324e-11 -0.05268945347)
(3.980495767e-05 5.418921149e-11 -0.0526900289)
(6.607190768e-05 5.418963151e-11 -0.05269096335)
(0.0001014211509 5.41901966e-11 -0.05269222092)
(0.0001444947137 5.419088529e-11 -0.05269375328)
(0.000193636877 5.419167068e-11 -0.05269550153)
(0.0002469587713 5.419252287e-11 -0.05269739848)
(0.0003024119239 5.419340931e-11 -0.05269937125)
(0.0003578650766 5.419429575e-11 -0.05270134402)
(0.0004111869708 5.419514794e-11 -0.05270324097)
(0.0004603291341 5.419593333e-11 -0.05270498922)
(0.0005034026968 5.419662202e-11 -0.05270652158)
(0.0005387519399 5.41971871e-11 -0.05270777914)
(0.0005650188899 5.419760669e-11 -0.0527087136)
(0.0005811937712 5.419786538e-11 -0.05270928903)
(0.0005866555117 5.419795263e-11 -0.05270948333)
(0.0005811937711 5.419786538e-11 -0.05270928903)
(0.0005650188897 5.419760669e-11 -0.0527087136)
(0.0005387519396 5.41971871e-11 -0.05270777914)
(0.0005034026964 5.419662202e-11 -0.05270652158)
(0.0004603291336 5.419593333e-11 -0.05270498922)
(0.0004111869703 5.419514794e-11 -0.05270324097)
(0.000357865076 5.419429575e-11 -0.05270134402)
(0.0003024119234 5.419340931e-11 -0.05269937125)
(0.0002469587707 5.419252287e-11 -0.05269739848)
(0.0001936368765 5.419167068e-11 -0.05269550153)
(0.0001444947132 5.419088529e-11 -0.05269375328)
(0.0001014211506 5.41901966e-11 -0.05269222092)
(6.607190738e-05 5.418963151e-11 -0.05269096335)
(3.980495746e-05 5.418921149e-11 -0.0526900289)
(2.363007613e-05 5.418895324e-11 -0.05268945347)
(3.077764664e-05 5.719638707e-11 -0.05584950189)
(3.625712902e-05 5.719647564e-11 -0.05584969746)
(5.248455254e-05 5.71967378e-11 -0.05585027664)
(7.883682748e-05 5.719716324e-11 -0.05585121718)
(0.0001143008984 5.719773613e-11 -0.05585248294)
(0.0001575143802 5.719843392e-11 -0.05585402529)
(0.0002068161758 5.71992306e-11 -0.05585578493)
(0.0002603112796 5.720009449e-11 -0.05585769424)
(0.0003159445649 5.720099307e-11 -0.05585967986)
(0.0003715778502 5.720189166e-11 -0.05586166548)
(0.000425072954 5.720275555e-11 -0.05586357479)
(0.0004743747495 5.720355222e-11 -0.05586533443)
(0.0005175882313 5.720425002e-11 -0.05586687678)
(0.0005530523021 5.720482291e-11 -0.05586814254)
(0.000579404577 5.720524835e-11 -0.05586908308)