/*--------------------------------*- C++ -*----------------------------------*\
| =========                 |                                                 |
| \\      /  F ield         | OpenFOAM: The Open Source CFD Toolbox           |
|  \\    /   O peration     | Version:  2312                                  |
|   \\  /    A nd           | Website:  www.openfoam.com                      |
|    \\/     M anipulation  |                                                 |
\*---------------------------------------------------------------------------*/
FoamFile
{
    version     2.0;
    format      ascii;
    arch        "LSB;label=32;scalar=64";
    class       surfaceVectorField;
    location    "0.21/beam";
    object      Q;
}
// * * * * * * * * * * * * * * * * * * * * * * * * * * * * * * * * * * * * * //

dimensions      [1 1 -2 0 0 0 0];

oriented        oriented;

internalField   nonuniform List<vector> 
59
(
(0.4285978633 3.168456041e-11 -0.02973312842)
(0.4285974133 3.165763059e-11 -0.02974094466)
(0.4285966608 3.161281689e-11 -0.02975400312)
(0.4285956024 3.155022412e-11 -0.02977234954)
(0.4285942333 3.147000039e-11 -0.02979604531)
(0.4285925476 3.137233835e-11 -0.02982516486)
(0.4285905388 3.125747636e-11 -0.02985979252)
(0.4285881994 3.112569949e-11 -0.02990001872)
(0.4285855218 3.097734011e-11 -0.02994593585)
(0.4285824984 3.081277782e-11 -0.0299976337)
(0.4285791218 3.063243868e-11 -0.03005519481)
(0.428575385 3.043679336e-11 -0.03011868962)
(0.4285712822 3.022635442e-11 -0.03018817179)
(0.4285668087 3.000167243e-11 -0.03026367368)
(0.4285619612 2.976333109e-11 -0.0303452022)
(0.4285567382 2.951194148e-11 -0.03043273509)
(0.4285511403 2.924813548e-11 -0.03052621788)
(0.4285451701 2.897255861e-11 -0.0306255614)
(0.4285388327 2.868586251e-11 -0.03073064012)
(0.4285321355 2.838869715e-11 -0.0308412913)
(0.4285250884 2.808170319e-11 -0.03095731483)
(0.4285177036 2.776550438e-11 -0.03107847395)
(0.4285099969 2.744073756e-11 -0.03120448215)
(0.4285019826 2.710786005e-11 -0.03133507772)
(0.4284936838 2.676755375e-11 -0.03146986586)
(0.428485118 2.642015339e-11 -0.03160854401)
(0.4284763125 2.606625584e-11 -0.03175066184)
(0.4284672882 2.570608773e-11 -0.03189587502)
(0.4284580758 2.534014042e-11 -0.03204369216)
(0.4284486989 2.496851569e-11 -0.03219374039)
(0.428439191 2.459158413e-11 -0.03234550173)
(0.4284295777 2.420931234e-11 -0.032498587)
(0.4284198942 2.382194452e-11 -0.03265246455)
(0.4284101678 2.342931502e-11 -0.03280673908)
(0.4284004348 2.303155536e-11 -0.03296087588)
(0.4283907235 2.262839671e-11 -0.03311448128)
(0.4283810711 2.221990684e-11 -0.03326702587)
(0.4283715063 2.180578721e-11 -0.03341812328)
(0.4283620665 2.138614543e-11 -0.03356725599)
(0.4283527806 2.096079043e-11 -0.03371404933)
(0.428343686 2.053004378e-11 -0.03385800329)
(0.4283348113 2.009403284e-11 -0.03399875874)
(0.4283261931 1.965353721e-11 -0.03413583864)
(0.4283178595 1.920927263e-11 -0.03426890334)
(0.4283098457 1.876275563e-11 -0.03439750437)
(0.4283021787 1.831556103e-11 -0.03452132595)
(0.4282948917 1.787016897e-11 -0.03463995413)
(0.42828801 1.742916917e-11 -0.03475310173)
(0.4282815642 1.699603419e-11 -0.03486039553)
(0.4282755774 1.657423962e-11 -0.03496158187)
(0.4282700766 1.616789514e-11 -0.03505633432)
(0.428265082 1.578075924e-11 -0.03514443763)
(0.4282606168 1.541666657e-11 -0.0352256179)
(0.4282566977 1.507844473e-11 -0.03529970272)
(0.4282533429 1.476811285e-11 -0.0353664757)
(0.4282505655 1.448575863e-11 -0.0354258111)
(0.4282483785 1.422956931e-11 -0.03547755398)
(0.4282467906 1.399486521e-11 -0.03552162794)
(0.4282458093 1.377445555e-11 -0.03555794182)
)
;

boundaryField
{
    left
    {
        type            calculated;
        value           uniform (-0.4285980131 -3.850533388e-11 0.02973052617);
    }
    right
    {
        type            calculated;
        value           uniform (0.4282454386 6.748359876e-12 -0.0355864694);
    }
    beam
    {
        type            empty;
        value           nonuniform List<vector> 0();
    }
}


// ************************************************************************* //
