/*--------------------------------*- C++ -*----------------------------------*\
| =========                 |                                                 |
| \\      /  F ield         | OpenFOAM: The Open Source CFD Toolbox           |
|  \\    /   O peration     | Version:  2312                                  |
|   \\  /    A nd           | Website:  www.openfoam.com                      |
|    \\/     M anipulation  |                                                 |
\*---------------------------------------------------------------------------*/
FoamFile
{
    version     2.0;
    format      ascii;
    arch        "LSB;label=32;scalar=64";
    class       volVectorField;
    location    "0.21/beam";
    object      Theta;
}
// * * * * * * * * * * * * * * * * * * * * * * * * * * * * * * * * * * * * * //

dimensions      [0 0 0 0 0 0 0];

internalField   nonuniform List<vector> 
60
(
(-2.962199298e-13 0.06922185031 7.376269631e-11)
(-2.9308846e-13 0.06923630542 7.372188344e-11)
(-2.86832268e-13 0.06926159719 7.363975004e-11)
(-2.774670401e-13 0.06930000146 7.351646149e-11)
(-2.650182212e-13 0.06935032967 7.335227013e-11)
(-2.495231872e-13 0.06941352189 7.314751841e-11)
(-2.310341733e-13 0.0694892901 7.290264301e-11)
(-2.096218435e-13 0.069578115 7.261817578e-11)
(-1.853788967e-13 0.06968003722 7.229474996e-11)
(-1.584244685e-13 0.06979536509 7.193309919e-11)
(-1.289083264e-13 0.06992423448 7.153405789e-11)
(-9.70145624e-14 0.070066855 7.10985626e-11)
(-6.296528536e-14 0.07022334516 7.062764647e-11)
(-2.702328811e-14 0.07039381385 7.01224333e-11)
(1.050637426e-14 0.07057829524 6.958413061e-11)
(4.927613692e-14 0.07077677272 6.901401979e-11)
(8.889735958e-14 0.0709891514 6.841345086e-11)
(1.289426031e-13 0.07121526351 6.778380696e-11)
(1.689515722e-13 0.07145485668 6.712652571e-11)
(2.084364472e-13 0.07170759506 6.644305608e-11)
(2.468904411e-13 0.07197305574 6.573485627e-11)
(2.837972297e-13 0.0722507309 6.500337892e-11)
(3.186394466e-13 0.07254001249 6.425009629e-11)
(3.509173907e-13 0.07284026285 6.34763233e-11)
(3.801501199e-13 0.07315072161 6.268345427e-11)
(4.058923688e-13 0.07347057686 6.187279039e-11)
(4.277465889e-13 0.07379895639 6.104556029e-11)
(4.453693767e-13 0.0741349355 6.020293199e-11)
(4.584830852e-13 0.07447754501 5.934596064e-11)
(4.668791214e-13 0.07482577926 5.847564376e-11)
(4.704303316e-13 0.07517860388 5.759288045e-11)
(4.690734287e-13 0.07553496307 5.669838369e-11)
(4.628358911e-13 0.07589378633 5.57928233e-11)
(4.51813343e-13 0.0762539945 5.487673998e-11)
(4.36173142e-13 0.07661450513 5.395052424e-11)
(4.161431608e-13 0.0769742372 5.301447606e-11)
(3.920069777e-13 0.07733211521 5.206879107e-11)
(3.640897321e-13 0.07768707277 5.111361405e-11)
(3.3275056e-13 0.0780380558 5.0149079e-11)
(2.983665972e-13 0.07838402567 4.917538987e-11)
(2.613231312e-13 0.07872396163 4.819291247e-11)
(2.219953518e-13 0.07905686403 4.720229739e-11)
(1.807340069e-13 0.07938175623 4.620461814e-11)
(1.378407866e-13 0.07969768896 4.520152555e-11)
(9.35436241e-14 0.08000374064 4.419540293e-11)
(4.795854949e-14 0.08029902462 4.318950631e-11)
(1.049576417e-15 0.08058268525 4.21880708e-11)
(-4.742008791e-14 0.08085391294 4.119635948e-11)
(-9.792123775e-14 0.08111192758 4.022064025e-11)
(-1.511596073e-13 0.08135601473 3.926807751e-11)
(-2.079785226e-13 0.08158547381 3.834656398e-11)
(-2.691022304e-13 0.08179971302 3.74645569e-11)
(-3.346002039e-13 0.08199809815 3.663094284e-11)
(-4.030315399e-13 0.08218021125 3.58551048e-11)
(-4.703571209e-13 0.08234541842 3.514712377e-11)
(-5.292412393e-13 0.0824935705 3.451787166e-11)
(-5.704586413e-13 0.08262372918 3.39784789e-11)
(-5.907091758e-13 0.08273587765 3.354068642e-11)
(-6.228198236e-13 0.0828264212 3.323608828e-11)
(-9.251738027e-13 0.082889316 3.326535718e-11)
)
;

boundaryField
{
    left
    {
        type            momentBeamRotationNR;
        value           uniform (-2.962199298e-13 0.06922185031 7.376269631e-11);
        momentSeries    
{
        file            "$FOAM_CASE/constant/beam/timeVsMoment";
        outOfBounds     clamp;
}
        moment          uniform (0 0 0);
    }
    right
    {
        type            momentBeamRotationNR;
        value           uniform (-9.251738027e-13 0.082889316 3.326535718e-11);
        momentSeries    
{
        file            "$FOAM_CASE/constant/beam/timeVsMoment";
        outOfBounds     clamp;
}
        moment          uniform (0 0 0);
    }
    beam
    {
        type            empty;
    }
}


// ************************************************************************* //
