/*--------------------------------*- C++ -*----------------------------------*\
| =========                 |                                                 |
| \\      /  F ield         | OpenFOAM: The Open Source CFD Toolbox           |
|  \\    /   O peration     | Version:  2312                                  |
|   \\  /    A nd           | Website:  www.openfoam.com                      |
|    \\/     M anipulation  |                                                 |
\*---------------------------------------------------------------------------*/
FoamFile
{
    version     2.0;
    format      ascii;
    arch        "LSB;label=32;scalar=64";
    class       volVectorField;
    location    "0.21/beam";
    object      W;
}
// * * * * * * * * * * * * * * * * * * * * * * * * * * * * * * * * * * * * * //

dimensions      [0 1 0 0 0 0 0];

internalField   nonuniform List<vector> 
60
(
(9.837867412e-06 1.638069882e-12 -0.001536485332)
(2.949492241e-05 4.911282531e-12 -0.004609725402)
(4.909585824e-05 8.181715966e-12 -0.007683774643)
(6.860300778e-05 1.144752458e-11 -0.01075917566)
(8.797833615e-05 1.470687369e-11 -0.01383647563)
(0.0001071833097 1.795794399e-11 -0.0169162279)
(0.0001261787836 2.119893616e-11 -0.01999899326)
(0.0001449249099 2.442807563e-11 -0.02308534095)
(0.0001633810717 2.764361728e-11 -0.02617584923)
(0.0001815058449 3.08438504e-11 -0.0292711056)
(0.0001992569899 3.40271034e-11 -0.03237170647)
(0.0002165914774 3.719174861e-11 -0.03547825642)
(0.000233465546 4.033620682e-11 -0.03859136697)
(0.000249834795 4.345895153e-11 -0.04171165485)
(0.0002656543078 4.655851277e-11 -0.04483973982)
(0.0002808788084 4.96334805e-11 -0.04797624207)
(0.0002954628454 5.268250746e-11 -0.05112177926)
(0.0003093610019 5.57043111e-11 -0.05427696324)
(0.0003225281274 5.869767498e-11 -0.05744239649)
(0.0003349195867 6.166144959e-11 -0.06061866846)
(0.0003464915211 6.4594552e-11 -0.06380635176)
(0.0003572011179 6.7495965e-11 -0.06700599837)
(0.0003670063296 7.036457334e-11 -0.0702179545)
(0.0003758684648 7.319981302e-11 -0.07344308104)
(0.0003837486969 7.600068098e-11 -0.07668166786)
(0.0003906112993 7.876640616e-11 -0.07993414566)
(0.0003964224278 8.149625175e-11 -0.08320091408)
(0.0004011512768 8.418954231e-11 -0.08648232649)
(0.0004047693189 8.684562546e-11 -0.08977870094)
(0.0004072514781 8.946389914e-11 -0.09309030494)
(0.000408575279 9.204377276e-11 -0.09641736773)
(0.0004087220248 9.458469317e-11 -0.09976006525)
(0.0004076758669 9.708610305e-11 -0.1031185334)
(0.0004054249793 9.95474717e-11 -0.1064928535)
(0.000401960564 1.019682517e-10 -0.1098830659)
(0.0003972780143 1.043479101e-10 -0.1132891561)
(0.0003913758738 1.066858875e-10 -0.116711069)
(0.0003842569799 1.089816337e-10 -0.1201486949)
(0.0003759273932 1.1123457e-10 -0.1236018843)
(0.0003663975105 1.134441321e-10 -0.1270704344)
(0.0003556809799 1.156097399e-10 -0.1305541036)
(0.0003437957693 1.177308509e-10 -0.134052599)
(0.0003307630795 1.198069408e-10 -0.1375655906)
(0.000316608352 1.218375709e-10 -0.1410926992)
(0.0003013601926 1.238223815e-10 -0.1446335107)
(0.0002850513004 1.257611733e-10 -0.1481875646)
(0.0002677174111 1.276539129e-10 -0.1517543683)
(0.0002493981326 1.295008232e-10 -0.1553333861)
(0.0002301359175 1.313023922e-10 -0.1589240531)
(0.0002099767911 1.330594604e-10 -0.1625257659)
(0.000188969363 1.347732156e-10 -0.1661378948)
(0.0001671654381 1.364452539e-10 -0.1697597768)
(0.0001446190789 1.380775378e-10 -0.1733907266)
(0.0001213870932 1.396723981e-10 -0.1770300308)
(9.752817629e-05 1.412324275e-10 -0.1806769577)
(7.310332134e-05 1.427604002e-10 -0.1843307528)
(4.817526e-05 1.442591e-10 -0.1879906446)
(2.280959422e-05 1.457312358e-10 -0.1916558308)
(-2.922337082e-06 1.471795633e-10 -0.1953254435)
(-2.892950794e-05 1.486081022e-10 -0.1989983807)
)
;

boundaryField
{
    left
    {
        type            fixedValue;
        value           uniform (0 0 0);
    }
    right
    {
        type            fixedValue;
        value           uniform (-4.19901304e-05 1.493172265e-10 -0.2008357296);
    }
    beam
    {
        type            empty;
    }
}


// ************************************************************************* //
