/*--------------------------------*- C++ -*----------------------------------*\
| =========                 |                                                 |
| \\      /  F ield         | OpenFOAM: The Open Source CFD Toolbox           |
|  \\    /   O peration     | Version:  2312                                  |
|   \\  /    A nd           | Website:  www.openfoam.com                      |
|    \\/     M anipulation  |                                                 |
\*---------------------------------------------------------------------------*/
FoamFile
{
    version     2.0;
    format      ascii;
    arch        "LSB;label=32;scalar=64";
    class       surfaceVectorField;
    location    "0.22/beam";
    object      Gamma;
}
// * * * * * * * * * * * * * * * * * * * * * * * * * * * * * * * * * * * * * //

dimensions      [0 0 0 0 0 0 0];

oriented        oriented;

internalField   nonuniform List<vector> 
59
(
(0.00346481851 -6.931031064e-18 3.657087927e-08)
(0.003464818196 -6.642625309e-18 3.628151237e-08)
(0.003464817676 -6.16520088e-18 3.580403469e-08)
(0.003464816957 -5.503123779e-18 3.514527633e-08)
(0.003464816047 -4.663010179e-18 3.431440944e-08)
(0.003464814956 -3.654039659e-18 3.332326204e-08)
(0.003464813697 -2.484801693e-18 3.218597459e-08)
(0.003464812284 -1.167227162e-18 3.091756776e-08)
(0.003464810733 2.870912534e-19 2.953515476e-08)
(0.003464809062 1.866053096e-18 2.80570588e-08)
(0.003464807291 3.557556607e-18 2.650170285e-08)
(0.003464805439 5.346136476e-18 2.488870075e-08)
(0.003464803529 7.218906101e-18 2.323639747e-08)
(0.003464801582 9.165024923e-18 2.1564101e-08)
(0.003464799622 1.117417374e-17 1.988910845e-08)
(0.003464797673 1.322828689e-17 1.822846474e-08)
(0.003464795758 1.532812652e-17 1.659700882e-08)
(0.003464793902 1.747551436e-17 1.500796676e-08)
(0.003464792128 1.965996208e-17 1.347167575e-08)
(0.003464790462 2.189092879e-17 1.199628175e-08)
(0.003464788926 2.41771722e-17 1.058638317e-08)
(0.003464787545 2.653606577e-17 9.241895763e-09)
(0.003464786342 2.899414853e-17 7.960302212e-09)
(0.003464785338 3.1580485e-17 6.731554213e-09)
(0.003464784557 3.43318742e-17 5.542642884e-09)
(0.003464784018 3.729464773e-17 4.372742273e-09)
(0.003464783741 4.051059107e-17 3.19612921e-09)
(0.003464783745 4.403473843e-17 1.979283417e-09)
(0.003464784046 4.792798238e-17 6.837638248e-10)
(0.003464784661 5.2138774e-17 -7.361422614e-10)
(0.003464785603 5.673810836e-17 -2.328816602e-09)
(0.003464786884 6.17900676e-17 -4.147103016e-09)
(0.003464788513 6.714934343e-17 -6.240895965e-09)
(0.0034647905 7.272615108e-17 -8.657824921e-09)
(0.003464792848 7.836913357e-17 -1.143200842e-08)
(0.003464795563 8.384266272e-17 -1.458350025e-08)
(0.003464798644 8.88185166e-17 -1.810278862e-08)
(0.003464802094 9.288294194e-17 -2.194914885e-08)
(0.003464805909 9.551813707e-17 -2.603289554e-08)
(0.003464810091 9.61150064e-17 -3.021531239e-08)
(0.003464814636 9.397980733e-17 -3.429257675e-08)
(0.003464819548 8.835086843e-17 -3.800279264e-08)
(0.00346482483 7.84446959e-17 -4.102230874e-08)
(0.003464830491 6.348499162e-17 -4.299020922e-08)
(0.003464836541 4.279689008e-17 -4.352860917e-08)
(0.003464843001 1.585381842e-17 -4.229510796e-08)
(0.003464849889 -1.756105729e-17 -3.904084461e-08)
(0.003464857231 -5.729022832e-17 -3.368687165e-08)
(0.003464865048 -1.025451053e-16 -2.641036704e-08)
(0.003464873367 -1.517936887e-16 -1.770407244e-08)
(0.003464882202 -2.024196629e-16 -8.425773684e-09)
(0.003464891574 -2.505284635e-16 2.649668384e-10)
(0.003464901487 -2.904534844e-16 7.034015258e-09)
(0.003464911953 -3.1453215e-16 1.06767886e-08)
(0.003464922967 -3.127511645e-16 1.048151868e-08)
(0.00346493453 -2.729634486e-16 6.555763509e-09)
(0.003464946622 -1.821026683e-16 -3.674898188e-10)
(0.003464959234 -2.721460818e-17 -1.096515559e-08)
(0.00346497234 2.261073437e-16 -3.619401755e-08)
)
;

boundaryField
{
    left
    {
        type            calculated;
        value           uniform (-0.003464818615 -4.516519244e-14 -3.66678185e-08);
    }
    right
    {
        type            calculated;
        value           uniform (0.00346498593 -4.451232639e-14 -1.362387717e-07);
    }
    beam
    {
        type            empty;
        value           nonuniform List<vector> 0();
    }
}


// ************************************************************************* //
