/*--------------------------------*- C++ -*----------------------------------*\
| =========                 |                                                 |
| \\      /  F ield         | OpenFOAM: The Open Source CFD Toolbox           |
|  \\    /   O peration     | Version:  2312                                  |
|   \\  /    A nd           | Website:  www.openfoam.com                      |
|    \\/     M anipulation  |                                                 |
\*---------------------------------------------------------------------------*/
FoamFile
{
    version     2.0;
    format      ascii;
    arch        "LSB;label=32;scalar=64";
    class       surfaceVectorField;
    location    "0.22/beam";
    object      K;
}
// * * * * * * * * * * * * * * * * * * * * * * * * * * * * * * * * * * * * * //

dimensions      [0 -1 0 0 0 0 0];

oriented        oriented;

internalField   nonuniform List<vector> 
59
(
(-2.337876796e-17 0.0004067353482 7.752046956e-14)
(-4.669211154e-17 0.0008113255401 1.529095851e-13)
(-6.987542555e-17 0.001211656912 2.240458597e-13)
(-9.286506781e-17 0.001605677973 2.888533266e-13)
(-1.155993169e-16 0.001991426114 3.45319746e-13)
(-1.380181956e-16 0.002367055356 3.915161902e-13)
(-1.600647725e-16 0.002730863936 4.256172254e-13)
(-1.816860653e-16 0.003081312046 4.459041995e-13)
(-2.028301811e-16 0.003417038351 4.507945451e-13)
(-2.234534549e-16 0.003736878317 4.388422247e-13)
(-2.435142627e-16 0.004039871488 4.087280506e-13)
(-2.629734528e-16 0.004325268654 3.592876899e-13)
(-2.817968644e-16 0.004592531422 2.895114883e-13)
(-2.999556064e-16 0.004841330516 1.98527584e-13)
(-3.174253548e-16 0.005071539954 8.557919846e-14)
(-3.341738109e-16 0.005283224486 -4.993466837e-14)
(-3.501944317e-16 0.005476625934 -2.085202641e-13)
(-3.654781781e-16 0.005652141987 -3.906932135e-13)
(-3.800010848e-16 0.005810301213 -5.96920648e-13)
(-3.937552159e-16 0.005951734832 -8.276702175e-13)
(-4.06729118e-16 0.006077144844 -1.083507067e-12)
(-4.189159967e-16 0.006187255456 -1.365132716e-12)
(-4.303128823e-16 0.006282782167 -1.673509764e-12)
(-4.409135439e-16 0.006364370848 -2.009908926e-12)
(-4.507087687e-16 0.006432533337 -2.375950664e-12)
(-4.596983529e-16 0.006487596685 -2.773726479e-12)
(-4.678668485e-16 0.006529629253 -3.205811427e-12)
(-4.75220365e-16 0.006558370539 -3.675327736e-12)
(-4.81756541e-16 0.006573160285 -4.186036831e-12)
(-4.873424611e-16 0.006572870933 -4.741751425e-12)
(-4.920691331e-16 0.006555852306 -5.346396393e-12)
(-4.960465657e-16 0.006519891985 -6.00463955e-12)
(-4.991042337e-16 0.006462206993 -6.720701671e-12)
(-5.011855379e-16 0.006379472495 -7.497503041e-12)
(-5.022421029e-16 0.00626790974 -8.336616034e-12)
(-5.021902218e-16 0.006123438656 -9.23747108e-12)
(-5.009107445e-16 0.005941920823 -1.019636619e-11)
(-4.982548691e-16 0.005719496094 -1.1205478e-11)
(-4.940318803e-16 0.005453028954 -1.225180661e-11)
(-4.8800572e-16 0.005140651389 -1.331609957e-11)
(-4.798958325e-16 0.004782398488 -1.437186304e-11)
(-4.693703138e-16 0.004380890677 -1.53845278e-11)
(-4.560740166e-16 0.003942001651 -1.631093499e-11)
(-4.396443671e-16 0.003475406028 -1.709926542e-11)
(-4.197744778e-16 0.002994883645 -1.768964008e-11)
(-3.962662693e-16 0.002518214177 -1.801550302e-11)
(-3.691581026e-16 0.002066464 -1.800616752e-11)
(-3.387850379e-16 0.001662520332 -1.759061446e-11)
(-3.059165437e-16 0.001328728078 -1.670307528e-11)
(-2.716989817e-16 0.00108371184 -1.529066185e-11)
(-2.376179469e-16 0.0009385970756 -1.332352071e-11)
(-2.051454111e-16 0.000893303239 -1.080794579e-11)
(-1.754511456e-16 0.0009338963873 -7.803327625e-12)
(-1.489660509e-16 0.001032335896 -4.443063761e-12)
(-1.253672886e-16 0.00114992911 -9.587220834e-13)
(-1.03863966e-16 0.001244623261 2.295061522e-12)
(-8.371793551e-17 0.001279047016 4.82356602e-12)
(-6.389306358e-17 0.001216218415 5.987513479e-12)
(-4.216668039e-17 0.0009548709626 4.885206151e-12)
)
;

boundaryField
{
    left
    {
        type            calculated;
        value           uniform (-3.524405338e-31 9.916803104e-36 -1.057232743e-31);
    }
    right
    {
        type            calculated;
        value           uniform (-8.482106631e-32 -1.068471829e-31 -9.217988639e-32);
    }
    beam
    {
        type            empty;
        value           nonuniform List<vector> 0();
    }
}


// ************************************************************************* //
