/*--------------------------------*- C++ -*----------------------------------*\
| =========                 |                                                 |
| \\      /  F ield         | OpenFOAM: The Open Source CFD Toolbox           |
|  \\    /   O peration     | Version:  2312                                  |
|   \\  /    A nd           | Website:  www.openfoam.com                      |
|    \\/     M anipulation  |                                                 |
\*---------------------------------------------------------------------------*/
FoamFile
{
    version     2.0;
    format      ascii;
    arch        "LSB;label=32;scalar=64";
    class       surfaceVectorField;
    location    "0.22/beam";
    object      M;
}
// * * * * * * * * * * * * * * * * * * * * * * * * * * * * * * * * * * * * * //

dimensions      [1 2 -2 0 0 0 0];

oriented        oriented;

internalField   nonuniform List<vector> 
59
(
(-9.610610967e-18 2.453370677e-07 4.727726756e-17)
(-1.925126715e-17 4.893802072e-07 9.326934289e-17)
(-2.895266854e-17 7.308544859e-07 1.366970257e-16)
(-3.874558885e-17 9.68522474e-07 1.763086048e-16)
(-4.866097757e-17 1.201200352e-06 2.108908574e-16)
(-5.8730024e-17 1.427774652e-06 2.392808775e-16)
(-6.898417899e-17 1.647218894e-06 2.60378263e-16)
(-7.945564024e-17 1.858604288e-06 2.731471268e-16)
(-9.017656044e-17 2.061109695e-06 2.766337484e-16)
(-1.011796618e-16 2.254032685e-06 2.699668747e-16)
(-1.124989558e-16 2.436793923e-06 2.523519132e-16)
(-1.241686665e-16 2.608941499e-06 2.230877848e-16)
(-1.362232203e-16 2.770150658e-06 1.815668176e-16)
(-1.486979787e-16 2.920222788e-06 1.272645887e-16)
(-1.616301104e-16 3.059081899e-06 5.972625904e-17)
(-1.750561978e-16 3.186767045e-06 -2.140898035e-17)
(-1.890146777e-16 3.30342409e-06 -1.164446272e-16)
(-2.03550126e-16 3.409292917e-06 -2.256895138e-16)
(-2.187096453e-16 3.504692348e-06 -3.494230531e-16)
(-2.345443013e-16 3.590003126e-06 -4.879247529e-16)
(-2.51112792e-16 3.66564869e-06 -6.415325721e-16)
(-2.684818163e-16 3.732065869e-06 -8.106663706e-16)
(-2.8673126e-16 3.789686244e-06 -9.959029219e-16)
(-3.059546991e-16 3.838899395e-06 -1.198004275e-15)
(-3.262595619e-16 3.880014053e-06 -1.41794287e-15)
(-3.477717787e-16 3.913227494e-06 -1.656974505e-15)
(-3.706343621e-16 3.938580951e-06 -1.916645956e-15)
(-3.950087746e-16 3.955917292e-06 -2.198833285e-15)
(-4.210777589e-16 3.96483826e-06 -2.505797232e-15)
(-4.490142336e-16 3.964663727e-06 -2.839829875e-15)
(-4.789830181e-16 3.954398329e-06 -3.203291282e-15)
(-5.111719133e-16 3.932707567e-06 -3.598988661e-15)
(-5.457318748e-16 3.897912787e-06 -4.029461069e-15)
(-5.827348027e-16 3.848008496e-06 -4.496466389e-15)
(-6.221735641e-16 3.780715404e-06 -5.000952718e-15)
(-6.639257662e-16 3.693572469e-06 -5.542580939e-15)
(-7.077094994e-16 3.584083453e-06 -6.119129172e-15)
(-7.530410816e-16 3.449919971e-06 -6.725898062e-15)
(-7.991916032e-16 3.289190723e-06 -7.355076256e-15)
(-8.451439989e-16 3.100768949e-06 -7.995093285e-15)
(-8.895559259e-16 2.884675814e-06 -8.630024846e-15)
(-9.307304996e-16 2.642491924e-06 -9.239091246e-15)
(-9.666017792e-16 2.377760208e-06 -9.796348097e-15)
(-9.947387295e-16 2.09631626e-06 -1.027064382e-14)
(-1.012376908e-15 1.806471886e-06 -1.062598087e-14)
(-1.016480197e-15 1.518951536e-06 -1.082234755e-14)
(-1.003849115e-15 1.246462154e-06 -1.081724933e-14)
(-9.712786565e-16 1.002808989e-06 -1.056799313e-14)
(-9.157926259e-16 8.014701744e-07 -1.003504437e-14)
(-8.349723912e-16 6.536798101e-07 -9.186614166e-15)
(-7.274119925e-16 5.661486156e-07 -8.004763153e-15)
(-5.933378861e-16 5.388280075e-07 -6.493282372e-15)
(-4.354607423e-16 5.633132262e-07 -4.687878082e-15)
(-2.600925164e-16 6.2269056e-07 -2.668734773e-15)
(-7.851868534e-17 6.936211403e-07 -5.750299507e-16)
(9.150512338e-17 7.507393264e-07 1.380112587e-15)
(2.24656127e-16 7.715032536e-07 2.899405137e-15)
(2.879041546e-16 7.336059212e-07 3.598707229e-15)
(2.358295976e-16 5.759647964e-07 2.936171842e-15)
)
;

boundaryField
{
    left
    {
        type            calculated;
        value           uniform (-4.288407618e-34 5.981653785e-39 -3.057744414e-35);
    }
    right
    {
        type            calculated;
        value           uniform (-1.068207464e-34 -6.444872485e-35 -4.638312503e-35);
    }
    beam
    {
        type            empty;
        value           nonuniform List<vector> 0();
    }
}


// ************************************************************************* //
