/*--------------------------------*- C++ -*----------------------------------*\
| =========                 |                                                 |
| \\      /  F ield         | OpenFOAM: The Open Source CFD Toolbox           |
|  \\    /   O peration     | Version:  2312                                  |
|   \\  /    A nd           | Website:  www.openfoam.com                      |
|    \\/     M anipulation  |                                                 |
\*---------------------------------------------------------------------------*/
FoamFile
{
    version     2.0;
    format      ascii;
    arch        "LSB;label=32;scalar=64";
    class       pointVectorField;
    location    "0.22/beam";
    object      pointW;
}
// * * * * * * * * * * * * * * * * * * * * * * * * * * * * * * * * * * * * * //

dimensions      [0 1 0 0 0 0 0];

internalField   nonuniform List<vector> 
1952
(
(-0.000310470495 -6.041866041e-15 1.20671895e-05)
(-0.0003045048044 -5.925815394e-15 1.183531845e-05)
(-0.0002868374808 -5.581906465e-15 1.114863503e-05)
(-0.0002581469023 -5.023759186e-15 1.003350605e-05)
(-0.0002195360154 -4.27219024e-15 8.532800191e-06)
(-0.0001724880927 -3.356689926e-15 6.704168461e-06)
(-0.000118811625 -2.311952713e-15 4.617902235e-06)
(-6.056976627e-05 -1.178744602e-15 2.354191005e-06)
(2.154070564e-13 0 -1.07098281e-14)
(6.056976669e-05 1.178744602e-15 -2.354191027e-06)
(0.0001188116254 2.311952713e-15 -4.617902255e-06)
(0.0001724880931 3.356689926e-15 -6.704168478e-06)
(0.0002195360157 4.27219024e-15 -8.532800206e-06)
(0.0002581469026 5.023759186e-15 -1.003350606e-05)
(0.000286837481 5.581906465e-15 -1.114863504e-05)
(0.0003045048045 5.925815394e-15 -1.183531845e-05)
(0.000310470495 6.041866041e-15 -1.20671895e-05)
(0.0003045048044 5.925815394e-15 -1.183531845e-05)
(0.0002868374808 5.581906465e-15 -1.114863503e-05)
(0.0002581469023 5.023759186e-15 -1.003350605e-05)
(0.0002195360154 4.27219024e-15 -8.532800191e-06)
(0.0001724880927 3.356689926e-15 -6.704168461e-06)
(0.000118811625 2.311952713e-15 -4.617902235e-06)
(6.056976627e-05 1.178744602e-15 -2.354191005e-06)
(-2.15407027e-13 0 1.070982696e-14)
(-6.056976669e-05 -1.178744602e-15 2.354191027e-06)
(-0.0001188116254 -2.311952713e-15 4.617902255e-06)
(-0.0001724880931 -3.356689926e-15 6.704168478e-06)
(-0.0002195360157 -4.27219024e-15 8.532800206e-06)
(-0.0002581469026 -5.023759186e-15 1.003350606e-05)
(-0.000286837481 -5.581906465e-15 1.114863504e-05)
(-0.0003045048045 -5.925815394e-15 1.183531845e-05)
(-0.0002911485361 2.389557129e-12 -0.003436555018)
(-0.0002851821556 2.389673203e-12 -0.003436786943)
(-0.0002675127887 2.390017004e-12 -0.003437473785)
(-0.000238818892 2.390576018e-12 -0.003438589173)
(-0.0002002035394 2.391327587e-12 -0.003440090226)
(-0.0001531501754 2.392243521e-12 -0.003441919282)
(-9.946749968e-05 2.393288259e-12 -0.003444006031)
(-4.121890494e-05 2.394422334e-12 -0.003446270267)
(1.93578668e-05 2.395601079e-12 -0.003448625003)
(7.993463853e-05 2.396779823e-12 -0.00345097974)
(0.0001381832332 2.397913899e-12 -0.003453243976)
(0.0001918659089 2.398958636e-12 -0.003455330725)
(0.0002389192729 2.39987457e-12 -0.003457159781)
(0.0002775346254 2.400626139e-12 -0.003458660834)
(0.000306228522 2.40118472e-12 -0.003459776222)
(0.0003238978888 2.40152852e-12 -0.003460463064)
(0.0003298642693 2.401644745e-12 -0.003460694989)
(0.0003238978887 2.40152852e-12 -0.003460463064)
(0.0003062285218 2.40118472e-12 -0.003459776222)
(0.0002775346251 2.400626139e-12 -0.003458660834)
(0.0002389192726 2.39987457e-12 -0.003457159781)
(0.0001918659086 2.398958636e-12 -0.003455330725)
(0.0001381832328 2.397913899e-12 -0.003453243976)
(7.99346381e-05 2.396779823e-12 -0.00345097974)
(1.935786637e-05 2.395601079e-12 -0.003448625003)
(-4.121890536e-05 2.394422334e-12 -0.003446270267)
(-9.946750007e-05 2.393288259e-12 -0.003444006031)
(-0.0001531501758 2.392243521e-12 -0.003441919282)
(-0.0002002035397 2.391327587e-12 -0.003440090226)
(-0.0002388188922 2.390576018e-12 -0.003438589173)
(-0.0002675127888 2.390017004e-12 -0.003437473785)
(-0.0002851821556 2.389673203e-12 -0.003436786943)
(-0.0002719602429 4.784302512e-12 -0.006885968264)
(-0.0002659917961 4.78441863e-12 -0.00688620035)
(-0.00024831631 4.784763081e-12 -0.006886887669)
(-0.0002196124761 4.785321878e-12 -0.00688800383)
(-0.0001809837504 4.786074315e-12 -0.006889505925)
(-0.000133914091 4.786991116e-12 -0.00689133625)
(-8.021282409e-05 4.788037154e-12 -0.006893424447)
(-2.194405688e-05 4.789171663e-12 -0.006895690254)
(3.865369362e-05 4.790352143e-12 -0.006898046624)
(9.925144411e-05 4.791532622e-12 -0.006900402994)
(0.0001575202113 4.792667131e-12 -0.006902668801)
(0.0002112214782 4.793713169e-12 -0.006904756998)
(0.0002582911375 4.794629971e-12 -0.006906587323)
(0.0002969198632 4.795382407e-12 -0.006908089418)
(0.000325623697 4.795941205e-12 -0.006909205579)
(0.000343299183 4.796285439e-12 -0.006909892898)
(0.0003492676297 4.796401757e-12 -0.006910124984)
(0.0003432991829 4.796285439e-12 -0.006909892898)
(0.0003256236968 4.795941205e-12 -0.006909205579)
(0.0002969198629 4.795382407e-12 -0.006908089418)
(0.0002582911372 4.794629971e-12 -0.006906587323)
(0.0002112214778 4.793713169e-12 -0.006904756998)
(0.0001575202109 4.792667131e-12 -0.006902668801)
(9.925144368e-05 4.791532622e-12 -0.006900402994)
(3.865369319e-05 4.790352143e-12 -0.006898046624)
(-2.19440573e-05 4.789171663e-12 -0.006895690254)
(-8.021282449e-05 4.788037154e-12 -0.006893424447)
(-0.0001339140914 4.786991116e-12 -0.00689133625)
(-0.0001809837507 4.786074315e-12 -0.006889505925)
(-0.0002196124764 4.785321878e-12 -0.00688800383)
(-0.0002483163102 4.784763081e-12 -0.006886887669)
(-0.0002659917962 4.78441863e-12 -0.00688620035)
(-0.0002529668083 7.179340366e-12 -0.01033696501)
(-0.0002469949298 7.17945679e-12 -0.01033719736)
(-0.0002293092808 7.179801892e-12 -0.01033788547)
(-0.0002005889431 7.180361774e-12 -0.01033900292)
(-0.000161938007 7.181115078e-12 -0.01034050675)
(-0.0001148412839 7.182033614e-12 -0.01034233918)
(-6.110914032e-05 7.183080953e-12 -0.01034442978)
(-2.806870268e-06 7.184216763e-12 -0.0103466982)
(5.782572217e-05 7.185398977e-12 -0.01034905728)
(0.0001184583146 7.186581191e-12 -0.01035141637)
(0.0001767605846 7.187718736e-12 -0.01035368479)
(0.0002304927282 7.188766075e-12 -0.01035577539)
(0.0002775894512 7.189684612e-12 -0.01035760782)
(0.0003162403872 7.190437915e-12 -0.01035911165)
(0.0003449607249 7.190997797e-12 -0.01036022909)
(0.0003626463738 7.191342465e-12 -0.01036091721)
(0.0003686182522 7.191458929e-12 -0.01036114956)
(0.0003626463737 7.191342465e-12 -0.01036091721)
(0.0003449607247 7.190997797e-12 -0.01036022909)
(0.000316240387 7.190437915e-12 -0.01035911165)
(0.0002775894509 7.189684612e-12 -0.01035760782)
(0.0002304927278 7.188766075e-12 -0.01035577539)
(0.0001767605842 7.187718736e-12 -0.01035368479)
(0.0001184583142 7.186581191e-12 -0.01035141637)
(5.782572174e-05 7.185398977e-12 -0.01034905728)
(-2.80687069e-06 7.184216763e-12 -0.0103466982)
(-6.110914072e-05 7.183080953e-12 -0.01034442978)
(-0.0001148412843 7.182033614e-12 -0.01034233918)
(-0.0001619380073 7.181115078e-12 -0.01034050675)
(-0.0002005889433 7.180361774e-12 -0.01033900292)
(-0.000229309281 7.179801892e-12 -0.01033788547)
(-0.0002469949299 7.17945679e-12 -0.01033719736)
(-0.0002342284934 9.57480846e-12 -0.01379032941)
(-0.0002282518357 9.574925163e-12 -0.01379056214)
(-0.0002105520333 9.575270698e-12 -0.01379125135)
(-0.0001818087113 9.575831881e-12 -0.01379237059)
(-0.0001431268437 9.576587353e-12 -0.01379387683)
(-9.599243018e-05 9.57750719e-12 -0.0137957122)
(-4.221728594e-05 9.578557131e-12 -0.01379780616)
(1.613164213e-05 9.579696411e-12 -0.01380007821)
(7.681275748e-05 9.580881227e-12 -0.01380244108)
(0.0001374938728 9.582066043e-12 -0.01380480395)
(0.0001958428009 9.583205323e-12 -0.013807076)
(0.0002496179451 9.584255264e-12 -0.01380916996)
(0.0002967523586 9.585175102e-12 -0.01381100533)
(0.0003354342261 9.585930574e-12 -0.01381251157)
(0.000364177548 9.586491757e-12 -0.01381363081)
(0.0003818773503 9.586837292e-12 -0.01381432002)
(0.0003878540079 9.586953929e-12 -0.01381455275)
(0.0003818773502 9.586837292e-12 -0.01381432002)
(0.0003641775478 9.586491757e-12 -0.01381363081)
(0.0003354342258 9.585930574e-12 -0.01381251157)
(0.0002967523583 9.585175102e-12 -0.01381100533)
(0.0002496179447 9.584255264e-12 -0.01380916996)
(0.0001958428005 9.583205323e-12 -0.013807076)
(0.0001374938724 9.582066043e-12 -0.01380480395)
(7.681275705e-05 9.580881227e-12 -0.01380244108)
(1.61316417e-05 9.579696411e-12 -0.01380007821)
(-4.221728634e-05 9.578557131e-12 -0.01379780616)
(-9.599243054e-05 9.57750719e-12 -0.0137957122)
(-0.000143126844 9.576587353e-12 -0.01379387683)
(-0.0001818087115 9.575831881e-12 -0.01379237059)
(-0.0002105520335 9.575270698e-12 -0.01379125135)
(-0.0002282518358 9.574925163e-12 -0.01379056214)
(-0.0002158043671 1.197083217e-11 -0.01724683331)
(-0.0002098216075 1.197094919e-11 -0.01724706651)
(-0.0001921037345 1.19712957e-11 -0.01724775714)
(-0.0001633310669 1.19718584e-11 -0.01724887867)
(-0.0001246097071 1.197261604e-11 -0.01725038799)
(-7.742717157e-05 1.197353848e-11 -0.01725222711)
(-2.359712552e-05 1.197459146e-11 -0.01725432535)
(3.481137396e-05 1.197573377e-11 -0.01725660206)
(9.555444178e-05 1.197692206e-11 -0.01725896976)
(0.0001562975096 1.197811034e-11 -0.01726133746)
(0.0002147060091 1.197925266e-11 -0.01726361417)
(0.0002685360551 1.198030564e-11 -0.01726571241)
(0.0003157185905 1.198122808e-11 -0.01726755153)
(0.0003544399503 1.198198572e-11 -0.01726906085)
(0.0003832126178 1.198254842e-11 -0.01727018238)
(0.0004009304907 1.198289493e-11 -0.01727087301)
(0.0004069132502 1.1983012e-11 -0.01727110621)
(0.0004009304907 1.198289493e-11 -0.01727087301)
(0.0003832126176 1.198254842e-11 -0.01727018238)
(0.0003544399501 1.198198572e-11 -0.01726906085)
(0.0003157185902 1.198122808e-11 -0.01726755153)
(0.0002685360547 1.198030564e-11 -0.01726571241)
(0.0002147060087 1.197925266e-11 -0.01726361417)
(0.0001562975092 1.197811034e-11 -0.01726133746)
(9.555444135e-05 1.197692206e-11 -0.01725896976)
(3.481137354e-05 1.197573377e-11 -0.01725660206)
(-2.359712592e-05 1.197459146e-11 -0.01725432535)
(-7.742717193e-05 1.197353848e-11 -0.01725222711)
(-0.0001246097074 1.197261604e-11 -0.01725038799)
(-0.0001633310672 1.19718584e-11 -0.01724887867)
(-0.0001921037346 1.19712957e-11 -0.01724775714)
(-0.0002098216076 1.197094919e-11 -0.01724706651)
(-0.0001977520631 1.436752056e-11 -0.02070723239)
(-0.0001917619102 1.436763794e-11 -0.02070746617)
(-0.0001740221418 1.436798575e-11 -0.0207081585)
(-0.0001452139175 1.436855019e-11 -0.02070928281)
(-0.0001064447066 1.436931043e-11 -0.02071079587)
(-5.920386388e-05 1.437023634e-11 -0.02071263955)
(-5.307295749e-06 1.437129278e-11 -0.02071474299)
(5.317338377e-05 1.437243987e-11 -0.02071702533)
(0.0001139915166 1.437363163e-11 -0.0207193989)
(0.0001748096495 1.437482338e-11 -0.02072177247)
(0.000233290329 1.43759696e-11 -0.02072405481)
(0.0002871868971 1.437702605e-11 -0.02072615824)
(0.0003344277398 1.437795195e-11 -0.02072800193)
(0.0003731969506 1.43787122e-11 -0.02072951498)
(0.0004020051748 1.437927707e-11 -0.02073063929)
(0.0004197449431 1.437962466e-11 -0.02073133163)
(0.000425735096 1.437974203e-11 -0.02073156541)
(0.0004197449431 1.437962466e-11 -0.02073133163)
(0.0004020051746 1.437927707e-11 -0.02073063929)
(0.0003731969504 1.43787122e-11 -0.02072951498)
(0.0003344277395 1.437795195e-11 -0.02072800193)
(0.0002871868967 1.437702605e-11 -0.02072615824)
(0.0002332903286 1.43759696e-11 -0.02072405481)
(0.0001748096491 1.437482338e-11 -0.02072177247)
(0.0001139915162 1.437363163e-11 -0.0207193989)
(5.317338335e-05 1.437243987e-11 -0.02071702533)
(-5.307296147e-06 1.437129278e-11 -0.02071474299)
(-5.920386424e-05 1.437023634e-11 -0.02071263955)
(-0.0001064447069 1.436931043e-11 -0.02071079587)
(-0.0001452139178 1.436855019e-11 -0.02070928281)
(-0.0001740221419 1.436798575e-11 -0.0207081585)
(-0.0001917619103 1.436763794e-11 -0.02070746617)
(-0.0001801275541 1.676496257e-11 -0.02417226256)
(-0.0001741287536 1.676508043e-11 -0.02417249702)
(-0.0001563633753 1.676542976e-11 -0.02417319136)
(-0.0001275135623 1.676599658e-11 -0.02417431892)
(-8.868838255e-05 1.676675942e-11 -0.02417583635)
(-4.1379341e-05 1.676768923e-11 -0.02417768537)
(1.259503445e-05 1.676874958e-11 -0.02417979489)
(7.11601391e-05 1.676990057e-11 -0.02418208384)
(0.0001320660715 1.677109753e-11 -0.02418446428)
(0.000192972004 1.677229449e-11 -0.02418684471)
(0.0002515371086 1.677344548e-11 -0.02418913366)
(0.000305511484 1.677450583e-11 -0.02419124318)
(0.0003528205255 1.677543564e-11 -0.0241930922)
(0.0003916457052 1.677619849e-11 -0.02419460964)
(0.0004204955181 1.677676574e-11 -0.0241957372)
(0.0004382608963 1.677711485e-11 -0.02419643154)
(0.0004442596968 1.677723275e-11 -0.02419666599)
(0.0004382608963 1.677711485e-11 -0.02419643154)
(0.000420495518 1.677676574e-11 -0.0241957372)
(0.000391645705 1.677619849e-11 -0.02419460964)
(0.0003528205252 1.677543564e-11 -0.0241930922)
(0.0003055114837 1.677450583e-11 -0.02419124318)
(0.0002515371082 1.677344548e-11 -0.02418913366)
(0.0001929720036 1.677229449e-11 -0.02418684471)
(0.0001320660711 1.677109753e-11 -0.02418446428)
(7.116013867e-05 1.676990057e-11 -0.02418208384)
(1.259503405e-05 1.676874958e-11 -0.02417979489)
(-4.137934136e-05 1.676768923e-11 -0.02417768537)
(-8.868838285e-05 1.676675942e-11 -0.02417583635)
(-0.0001275135626 1.676599658e-11 -0.02417431892)
(-0.0001563633755 1.676542976e-11 -0.02417319136)
(-0.0001741287537 1.676508043e-11 -0.02417249702)
(-0.0001629849452 1.916322343e-11 -0.02764263664)
(-0.0001569762855 1.916334192e-11 -0.02764287187)
(-0.0001391817095 1.916369255e-11 -0.0276435685)
(-0.0001102844814 1.916426176e-11 -0.02764469977)
(-7.139549177e-05 1.916502851e-11 -0.02764622221)
(-2.4008697e-05 1.916596222e-11 -0.02764807732)
(3.005438625e-05 1.916702777e-11 -0.02765019379)
(8.871574365e-05 1.91681844e-11 -0.02765249028)
(0.000149721776 1.916938656e-11 -0.02765487856)
(0.0002107278084 1.917058873e-11 -0.02765726684)
(0.0002693891658 1.917174449e-11 -0.02765956333)
(0.000323452249 1.917281004e-11 -0.0276616798)
(0.0003708390437 1.917374376e-11 -0.02766353491)
(0.0004097280333 1.91745105e-11 -0.02766505735)
(0.0004386252613 1.917508014e-11 -0.02766618862)
(0.0004564198373 1.917543077e-11 -0.02766688525)
(0.0004624284969 1.917554917e-11 -0.02766712048)
(0.0004564198372 1.917543077e-11 -0.02766688525)
(0.0004386252612 1.917508014e-11 -0.02766618862)
(0.000409728033 1.91745105e-11 -0.02766505735)
(0.0003708390434 1.917374376e-11 -0.02766353491)
(0.0003234522487 1.917281004e-11 -0.0276616798)
(0.0002693891654 1.917174449e-11 -0.02765956333)
(0.000210727808 1.917058873e-11 -0.02765726684)
(0.0001497217756 1.916938656e-11 -0.02765487856)
(8.871574323e-05 1.91681844e-11 -0.02765249028)
(3.005438585e-05 1.916702777e-11 -0.02765019379)
(-2.400869736e-05 1.916596222e-11 -0.02764807732)
(-7.139549207e-05 1.916502851e-11 -0.02764622221)
(-0.0001102844816 1.916426176e-11 -0.02764469977)
(-0.0001391817097 1.916369255e-11 -0.0276435685)
(-0.0001569762856 1.916334192e-11 -0.02764287187)
(-0.0001463762931 2.156234134e-11 -0.03111904133)
(-0.0001403566105 2.156246048e-11 -0.03111927742)
(-0.0001225293901 2.156281273e-11 -0.03111997661)
(-9.357914967e-05 2.156338563e-11 -0.03112111204)
(-5.461881771e-05 2.156415584e-11 -0.03112264008)
(-7.145091281e-06 2.156509433e-11 -0.03112450201)
(4.701717137e-05 2.156616509e-11 -0.03112662627)
(0.0001057861438 2.156732692e-11 -0.03112893121)
(0.0001669040925 2.156853515e-11 -0.03113132827)
(0.0002280220412 2.156974339e-11 -0.03113372533)
(0.0002867910135 2.157090609e-11 -0.03113603027)
(0.0003409532762 2.157197684e-11 -0.03113815453)
(0.0003884270025 2.157291533e-11 -0.03114001646)
(0.0004273873344 2.157368555e-11 -0.0311415445)
(0.0004563375748 2.157425757e-11 -0.03114267993)
(0.0004741647951 2.157461026e-11 -0.03114337912)
(0.0004801844777 2.15747292e-11 -0.03114361521)
(0.000474164795 2.157461026e-11 -0.03114337912)
(0.0004563375746 2.157425757e-11 -0.03114267993)
(0.0004273873342 2.157368555e-11 -0.0311415445)
(0.0003884270022 2.157291533e-11 -0.03114001646)
(0.0003409532758 2.157197684e-11 -0.03113815453)
(0.0002867910131 2.157090609e-11 -0.03113603027)
(0.0002280220408 2.156974339e-11 -0.03113372533)
(0.000166904092 2.156853515e-11 -0.03113132827)
(0.0001057861433 2.156732692e-11 -0.03112893121)
(4.701717097e-05 2.156616509e-11 -0.03112662627)
(-7.14509164e-06 2.156509433e-11 -0.03112450201)
(-5.461881802e-05 2.156415584e-11 -0.03112264008)
(-9.357914991e-05 2.156338563e-11 -0.03112111204)
(-0.0001225293903 2.156281273e-11 -0.03111997661)
(-0.0001403566106 2.156246048e-11 -0.03111927742)
(-0.0001303514489 2.396232427e-11 -0.03460213454)
(-0.0001243196314 2.39624439e-11 -0.03460237158)
(-0.0001064564738 2.396279833e-11 -0.0346030736)
(-7.744787375e-05 2.396337382e-11 -0.03460421363)
(-3.840900319e-05 2.396414837e-11 -0.03460574784)
(9.16042364e-06 2.396509206e-11 -0.0346076173)
(6.343186985e-05 2.396616889e-11 -0.03460975014)
(0.0001223193123 2.39673368e-11 -0.03461206439)
(0.0001835604662 2.396855197e-11 -0.03461447115)
(0.0002448016202 2.396976714e-11 -0.0346168779)
(0.0003036890626 2.397093591e-11 -0.03461919215)
(0.0003579605088 2.397201274e-11 -0.03462132499)
(0.0004055299356 2.397295643e-11 -0.03462319445)
(0.0004445688061 2.397373099e-11 -0.03462472867)
(0.0004735774061 2.397430648e-11 -0.03462586869)
(0.0004914405636 2.397466091e-11 -0.03462657071)
(0.000497472381 2.397478054e-11 -0.03462680775)
(0.0004914405635 2.397466091e-11 -0.03462657071)
(0.0004735774059 2.397430648e-11 -0.03462586869)
(0.0004445688058 2.397373099e-11 -0.03462472867)
(0.0004055299353 2.397295643e-11 -0.03462319445)
(0.0003579605084 2.397201274e-11 -0.03462132499)
(0.0003036890622 2.397093591e-11 -0.03461919215)
(0.0002448016198 2.396976714e-11 -0.0346168779)
(0.0001835604658 2.396855197e-11 -0.03461447115)
(0.0001223193119 2.39673368e-11 -0.03461206439)
(6.343186945e-05 2.396616889e-11 -0.03460975014)
(9.160423281e-06 2.396509206e-11 -0.0346076173)
(-3.84090035e-05 2.396414837e-11 -0.03460574784)
(-7.744787399e-05 2.396337382e-11 -0.03460421363)
(-0.000106456474 2.396279833e-11 -0.0346030736)
(-0.0001243196315 2.39624439e-11 -0.03460237158)
(-0.0001149579247 2.636314717e-11 -0.03809254313)
(-0.000108912916 2.636326758e-11 -0.03809278122)
(-9.101069304e-05 2.636362417e-11 -0.03809348631)
(-6.193865324e-05 2.636420292e-11 -0.03809463134)
(-2.281440751e-05 2.636498225e-11 -0.03809617228)
(2.485905022e-05 2.636593157e-11 -0.03809804993)
(7.924918415e-05 2.636701447e-11 -0.03810019213)
(0.0001382654091 2.636819062e-11 -0.03810251653)
(0.0001996404931 2.636941273e-11 -0.03810493384)
(0.000261015577 2.637063484e-11 -0.03810735115)
(0.000320031802 2.637181012e-11 -0.03810967555)
(0.0003744219359 2.637289302e-11 -0.03811181775)
(0.0004220953935 2.637384235e-11 -0.0381136954)
(0.0004612196392 2.637462167e-11 -0.03811523634)
(0.0004902916789 2.637520085e-11 -0.03811638137)
(0.0005081939018 2.637555745e-11 -0.03811708646)
(0.0005142389104 2.637567783e-11 -0.03811732455)
(0.0005081939017 2.637555745e-11 -0.03811708646)
(0.0004902916788 2.637520085e-11 -0.03811638137)
(0.000461219639 2.637462167e-11 -0.03811523634)
(0.0004220953932 2.637384235e-11 -0.0381136954)
(0.0003744219355 2.637289302e-11 -0.03811181775)
(0.0003200318016 2.637181012e-11 -0.03810967555)
(0.0002610155766 2.637063484e-11 -0.03810735115)
(0.0001996404926 2.636941273e-11 -0.03810493384)
(0.0001382654087 2.636819062e-11 -0.03810251653)
(7.924918375e-05 2.636701447e-11 -0.03810019213)
(2.485904986e-05 2.636593157e-11 -0.03809804993)
(-2.281440781e-05 2.636498225e-11 -0.03809617228)
(-6.193865348e-05 2.636420292e-11 -0.03809463134)
(-9.10106932e-05 2.636362417e-11 -0.03809348631)
(-0.0001089129161 2.636326758e-11 -0.03809278122)
(-0.0001002407908 2.87647494e-11 -0.04159086102)
(-9.418159321e-05 2.876487059e-11 -0.04159110022)
(-7.623734966e-05 2.876522935e-11 -0.04159180864)
(-4.709707122e-05 2.876581221e-11 -0.04159295905)
(-7.880992042e-06 2.876659631e-11 -0.04159450724)
(3.990436605e-05 2.876755171e-11 -0.04159639374)
(9.442216591e-05 2.876864198e-11 -0.04159854602)
(0.0001535769153 2.876982506e-11 -0.04160088137)
(0.0002150960604 2.877105498e-11 -0.04160331005)
(0.0002766152055 2.87722849e-11 -0.04160573874)
(0.0003357699549 2.877346798e-11 -0.04160807408)
(0.0003902877548 2.877455826e-11 -0.04161022636)
(0.0004380731128 2.877551366e-11 -0.04161211286)
(0.0004772891919 2.877629775e-11 -0.04161366105)
(0.0005064294703 2.877688018e-11 -0.04161481147)
(0.0005243737137 2.877723895e-11 -0.04161551988)
(0.0005304329113 2.877736008e-11 -0.04161575909)
(0.0005243737137 2.877723895e-11 -0.04161551988)
(0.0005064294701 2.877688018e-11 -0.04161481147)
(0.0004772891917 2.877629775e-11 -0.04161366105)
(0.0004380731125 2.877551366e-11 -0.04161211286)
(0.0003902877544 2.877455826e-11 -0.04161022636)
(0.0003357699545 2.877346798e-11 -0.04160807408)
(0.0002766152051 2.87722849e-11 -0.04160573874)
(0.00021509606 2.877105498e-11 -0.04160331005)
(0.0001535769149 2.876982506e-11 -0.04160088137)
(9.442216552e-05 2.876864198e-11 -0.04159854602)
(3.990436569e-05 2.876755171e-11 -0.04159639374)
(-7.880992348e-06 2.876659631e-11 -0.04159450724)
(-4.709707146e-05 2.876581221e-11 -0.04159295905)
(-7.623734983e-05 2.876522935e-11 -0.04159180864)
(-9.41815933e-05 2.876487059e-11 -0.04159110022)
(-8.624259553e-05 3.11670324e-11 -0.04509764769)
(-8.01682717e-05 3.116715447e-11 -0.04509788809)
(-6.217923213e-05 3.116751562e-11 -0.04509860005)
(-3.296620786e-05 3.116810195e-11 -0.04509975623)
(6.347770378e-06 3.116889169e-11 -0.04510131217)
(5.425241989e-05 3.116985359e-11 -0.04510320811)
(0.000108906318 3.11709508e-11 -0.04510537117)
(0.0001682087414 3.117214212e-11 -0.04510771821)
(0.000229881463 3.117338072e-11 -0.04511015905)
(0.0002915541846 3.117461931e-11 -0.0451125999)
(0.0003508566079 3.117580976e-11 -0.04511494694)
(0.0004055105061 3.117690698e-11 -0.04511711)
(0.0004534151555 3.117786888e-11 -0.04511900594)
(0.0004927291337 3.117865861e-11 -0.04512056188)
(0.0005219421579 3.117924538e-11 -0.04512171806)
(0.0005399311974 3.117960653e-11 -0.04512243002)
(0.0005460055211 3.117972841e-11 -0.04512267042)
(0.0005399311973 3.117960653e-11 -0.04512243002)
(0.0005219421577 3.117924538e-11 -0.04512171806)
(0.0004927291334 3.117865861e-11 -0.04512056188)
(0.0004534151552 3.117786888e-11 -0.04511900594)
(0.0004055105057 3.117690698e-11 -0.04511711)
(0.0003508566075 3.117580976e-11 -0.04511494694)
(0.0002915541842 3.117461931e-11 -0.0451125999)
(0.0002298814626 3.117338072e-11 -0.04511015905)
(0.000168208741 3.117214212e-11 -0.04510771821)
(0.0001089063176 3.11709508e-11 -0.04510537117)
(5.425241953e-05 3.116985359e-11 -0.04510320811)
(6.347770072e-06 3.116889169e-11 -0.04510131217)
(-3.29662081e-05 3.116810195e-11 -0.04509975623)
(-6.217923229e-05 3.116751562e-11 -0.04509860005)
(-8.016827179e-05 3.116715447e-11 -0.04509788809)
(-7.30033167e-05 3.356985777e-11 -0.04861342716)
(-6.691299161e-05 3.356998067e-11 -0.04861366883)
(-4.887656446e-05 3.357034442e-11 -0.04861438455)
(-1.958658587e-05 3.357093553e-11 -0.04861554684)
(1.983095509e-05 3.357173047e-11 -0.048617111)
(6.786179728e-05 3.357269931e-11 -0.04861901696)
(0.0001226596673 3.357380476e-11 -0.04862119145)
(0.0001821183079 3.357500389e-11 -0.04862355089)
(0.0002439534907 3.357625115e-11 -0.04862600463)
(0.0003057886734 3.357749842e-11 -0.04862845837)
(0.000365247314 3.357869755e-11 -0.04863081781)
(0.000420045184 3.3579803e-11 -0.0486329923)
(0.0004680760261 3.358077184e-11 -0.04863489826)
(0.000507493567 3.358156678e-11 -0.04863646242)
(0.0005367835455 3.358215745e-11 -0.04863762471)
(0.0005548199726 3.35825212e-11 -0.04863834043)
(0.0005609102976 3.358264405e-11 -0.04863858211)
(0.0005548199725 3.35825212e-11 -0.04863834043)
(0.0005367835453 3.358215745e-11 -0.04863762471)
(0.0005074935668 3.358156678e-11 -0.04863646242)
(0.0004680760258 3.358077184e-11 -0.04863489826)
(0.0004200451836 3.3579803e-11 -0.0486329923)
(0.0003652473136 3.357869755e-11 -0.04863081781)
(0.000305788673 3.357749842e-11 -0.04862845837)
(0.0002439534902 3.357625115e-11 -0.04862600463)
(0.0001821183075 3.357500389e-11 -0.04862355089)
(0.0001226596669 3.357380476e-11 -0.04862119145)
(6.786179692e-05 3.357269931e-11 -0.04861901696)
(1.983095478e-05 3.357173047e-11 -0.048617111)
(-1.958658611e-05 3.357093553e-11 -0.04861554684)
(-4.887656462e-05 3.357034442e-11 -0.04861438455)
(-6.691299169e-05 3.356998067e-11 -0.04861366883)
(-6.056033484e-05 3.597304546e-11 -0.05213868731)
(-5.44531963e-05 3.597316921e-11 -0.05213893033)
(-3.636697632e-05 3.597353578e-11 -0.05213965001)
(-6.996137432e-06 3.597413079e-11 -0.05214081873)
(3.25302228e-05 3.59749318e-11 -0.05214239156)
(8.069366285e-05 3.597590758e-11 -0.05214430807)
(0.0001356428123 3.597702128e-11 -0.0521464946)
(0.0001952655993 3.597822908e-11 -0.05214886711)
(0.0002572714893 3.597948588e-11 -0.05215133444)
(0.0003192773793 3.598074269e-11 -0.05215380177)
(0.0003789001662 3.598195049e-11 -0.05215617427)
(0.0004338493157 3.598306418e-11 -0.0521583608)
(0.0004820127557 3.598403997e-11 -0.05216027732)
(0.0005215391158 3.598484098e-11 -0.05216185014)
(0.0005509099547 3.598543642e-11 -0.05216301887)
(0.0005689961746 3.598580277e-11 -0.05216373855)
(0.000575103313 3.59859266e-11 -0.05216398156)
(0.0005689961745 3.598580277e-11 -0.05216373855)
(0.0005509099545 3.598543642e-11 -0.05216301887)
(0.0005215391156 3.598484098e-11 -0.05216185014)
(0.0004820127554 3.598403997e-11 -0.05216027732)
(0.0004338493153 3.598306418e-11 -0.0521583608)
(0.0003789001658 3.598195049e-11 -0.05215617427)
(0.0003192773789 3.598074269e-11 -0.05215380177)
(0.0002572714889 3.597948588e-11 -0.05215133444)
(0.0001952655989 3.597822908e-11 -0.05214886711)
(0.0001356428119 3.597702128e-11 -0.0521464946)
(8.069366249e-05 3.597590758e-11 -0.05214430807)
(3.25302225e-05 3.59749318e-11 -0.05214239156)
(-6.996137672e-06 3.597413079e-11 -0.05214081873)
(-3.636697648e-05 3.597353578e-11 -0.05213965001)
(-5.445319638e-05 3.597316921e-11 -0.05213893033)
(-4.894843588e-05 3.83763724e-11 -0.05567387966)
(-4.28237347e-05 3.837649718e-11 -0.05567412407)
(-2.468550315e-05 3.837686635e-11 -0.05567484791)
(4.769799119e-06 3.837746614e-11 -0.05567602337)
(4.440982754e-05 3.837827322e-11 -0.05567760528)
(9.271177392e-05 3.83792568e-11 -0.05567953285)
(0.0001478189438 3.838037874e-11 -0.05568173199)
(0.0002076131914 3.838159564e-11 -0.05568411818)
(0.0002697973952 3.838286199e-11 -0.05568659975)
(0.0003319815991 3.838412834e-11 -0.05568908131)
(0.0003917758466 3.838534612e-11 -0.0556914675)
(0.0004468830165 3.838646805e-11 -0.05569366664)
(0.0004951849628 3.838745164e-11 -0.05569559421)
(0.0005348249911 3.838825872e-11 -0.05569717612)
(0.0005642802933 3.83888585e-11 -0.05569835158)
(0.0005824185248 3.838922789e-11 -0.05569907542)
(0.0005885432259 3.838935262e-11 -0.05569931983)
(0.0005824185247 3.838922789e-11 -0.05569907542)
(0.0005642802932 3.83888585e-11 -0.05569835158)
(0.0005348249909 3.838825872e-11 -0.05569717612)
(0.0004951849625 3.838745164e-11 -0.05569559421)
(0.0004468830161 3.838646805e-11 -0.05569366664)
(0.0003917758462 3.838534612e-11 -0.0556914675)
(0.0003319815986 3.838412834e-11 -0.05568908131)
(0.0002697973948 3.838286199e-11 -0.05568659975)
(0.000207613191 3.838159564e-11 -0.05568411818)
(0.0001478189434 3.838037874e-11 -0.05568173199)
(9.271177356e-05 3.83792568e-11 -0.05567953285)
(4.440982724e-05 3.837827322e-11 -0.05567760528)
(4.769798878e-06 3.837746614e-11 -0.05567602337)
(-2.468550332e-05 3.837686635e-11 -0.05567484791)
(-4.282373478e-05 3.837649718e-11 -0.05567412407)
(-3.819983363e-05 4.07795712e-11 -0.05921941944)
(-3.205688308e-05 4.077969689e-11 -0.05921966532)
(-1.386460625e-05 4.078006921e-11 -0.05922039348)
(1.567846203e-05 4.078067354e-11 -0.05922157597)
(5.543660322e-05 4.078148713e-11 -0.05922316733)
(0.0001038824717 4.078247852e-11 -0.05922510642)
(0.0001591538407 4.078360956e-11 -0.05922731871)
(0.0002191262533 4.078483645e-11 -0.05922971916)
(0.0002814957433 4.078611233e-11 -0.05923221556)
(0.0003438652333 4.078738822e-11 -0.05923471196)
(0.0004038376458 4.078861597e-11 -0.05923711242)
(0.0004591090148 4.078974701e-11 -0.05923932471)
(0.0005075548832 4.079073841e-11 -0.0592412638)
(0.0005473130243 4.079155199e-11 -0.05924285516)
(0.0005768560925 4.079215633e-11 -0.05924403765)
(0.0005950483693 4.079252864e-11 -0.05924476581)
(0.0006011913198 4.079265436e-11 -0.05924501169)
(0.0005950483692 4.079252864e-11 -0.05924476581)
(0.0005768560924 4.079215633e-11 -0.05924403765)
(0.0005473130241 4.079155199e-11 -0.05924285516)
(0.0005075548829 4.079073841e-11 -0.0592412638)
(0.0004591090144 4.078974701e-11 -0.05923932471)
(0.0004038376454 4.078861597e-11 -0.05923711242)
(0.0003438652328 4.078738822e-11 -0.05923471196)
(0.0002814957428 4.078611233e-11 -0.05923221556)
(0.0002191262529 4.078483645e-11 -0.05922971916)
(0.0001591538403 4.078360956e-11 -0.05922731871)
(0.0001038824713 4.078247852e-11 -0.05922510642)
(5.543660291e-05 4.078148713e-11 -0.05922316733)
(1.567846179e-05 4.078067354e-11 -0.05922157597)
(-1.386460642e-05 4.078006921e-11 -0.05922039348)
(-3.205688317e-05 4.077969689e-11 -0.05921966532)
(-2.834421586e-05 4.318232902e-11 -0.0627756861)
(-2.218239061e-05 4.318245566e-11 -0.06277593349)
(-3.934216548e-06 4.318283101e-11 -0.06277666615)
(2.569962518e-05 4.318344033e-11 -0.06277785592)
(6.557992644e-05 4.318426042e-11 -0.06277945709)
(0.0001141746487 4.318526006e-11 -0.06278140814)
(0.0001696158435 4.31864002e-11 -0.06278363407)
(0.0002297725261 4.318763749e-11 -0.06278604932)
(0.0002923336513 4.318892379e-11 -0.06278856111)
(0.0003548947766 4.319021009e-11 -0.0627910729)
(0.0004150514591 4.319144738e-11 -0.06279348815)
(0.0004704926538 4.319258753e-11 -0.06279571407)
(0.0005190873761 4.319358716e-11 -0.06279766512)
(0.0005589676773 4.319440725e-11 -0.06279926629)
(0.0005886015189 4.319501657e-11 -0.06280045607)