/*--------------------------------*- C++ -*----------------------------------*\
| =========                 |                                                 |
| \\      /  F ield         | OpenFOAM: The Open Source CFD Toolbox           |
|  \\    /   O peration     | Version:  2312                                  |
|   \\  /    A nd           | Website:  www.openfoam.com                      |
|    \\/     M anipulation  |                                                 |
\*---------------------------------------------------------------------------*/
FoamFile
{
    version     2.0;
    format      ascii;
    arch        "LSB;label=32;scalar=64";
    class       surfaceVectorField;
    location    "0.22/beam";
    object      Q;
}
// * * * * * * * * * * * * * * * * * * * * * * * * * * * * * * * * * * * * * //

dimensions      [1 1 -2 0 0 0 0];

oriented        oriented;

internalField   nonuniform List<vector> 
59
(
(0.5209046163 2.816006595e-11 -0.04055290815)
(0.5209034719 2.816275099e-11 -0.04056699405)
(0.5209015709 2.816714349e-11 -0.04059038774)
(0.5208989225 2.817312049e-11 -0.04062296626)
(0.5208955394 2.818051159e-11 -0.04066455999)
(0.5208914377 2.818910061e-11 -0.04071495503)
(0.5208866368 2.81986278e-11 -0.04077389626)
(0.5208811588 2.820879223e-11 -0.04084109088)
(0.5208750286 2.821925468e-11 -0.04091621245)
(0.5208682735 2.822964072e-11 -0.04099890526)
(0.5208609228 2.823954396e-11 -0.04108878898)
(0.5208530074 2.824852951e-11 -0.04118546353)
(0.5208445596 2.825613737e-11 -0.04128851398)
(0.5208356128 2.826188588e-11 -0.0413975155)
(0.5208262011 2.82652749e-11 -0.04151203816)
(0.5208163587 2.826578874e-11 -0.04163165153)
(0.5208061199 2.826289869e-11 -0.04175592896)
(0.5207955187 2.825606482e-11 -0.04188445152)
(0.5207845885 2.82447371e-11 -0.04201681133)
(0.520773362 2.822835539e-11 -0.04215261435)
(0.5207618707 2.820634826e-11 -0.04229148244)
(0.5207501452 2.817813032e-11 -0.04243305452)
(0.5207382162 2.814310223e-11 -0.04257697042)
(0.520726108 2.810062291e-11 -0.04272295189)
(0.5207138532 2.805005106e-11 -0.04287061978)
(0.5207014732 2.799066123e-11 -0.04301973823)
(0.5206889998 2.792172421e-11 -0.0431699428)
(0.520676454 2.784238709e-11 -0.04332100308)
(0.5206638691 2.775178574e-11 -0.04347254288)
(0.5206512687 2.764888945e-11 -0.04362430299)
(0.5206386907 2.753265611e-11 -0.04377585586)
(0.5206261653 2.740184124e-11 -0.04392686681)
(0.5206137393 2.725521076e-11 -0.04407680683)
(0.5206014542 2.709131624e-11 -0.04422521173)
(0.5205893703 2.690878539e-11 -0.04437139917)
(0.520577545 2.670606611e-11 -0.04451472669)
(0.5205660556 2.64818173e-11 -0.04465432249)
(0.5205549778 2.623462436e-11 -0.04478934519)
(0.5205444056 2.596351202e-11 -0.04491874207)
(0.5205344297 2.566762968e-11 -0.04504151415)
(0.5205251537 2.534689936e-11 -0.04515651847)
(0.5205166714 2.500166131e-11 -0.04526274075)
(0.5205090778 2.463345106e-11 -0.0453591561)
(0.5205024465 2.424458287e-11 -0.04544500407)
(0.5204968344 2.383901726e-11 -0.04551971027)
(0.5204922611 2.342184338e-11 -0.04558314141)
(0.5204887101 2.300015077e-11 -0.04563556358)
(0.5204861141 2.258235066e-11 -0.0456778273)
(0.5204843589 2.217890211e-11 -0.04571129933)
(0.5204832811 2.180138368e-11 -0.04573790107)
(0.520482683 2.146284042e-11 -0.04575992274)
(0.5204823492 2.117646841e-11 -0.04577985091)
(0.5204820759 2.095524029e-11 -0.04580001606)
(0.520481702 2.080997934e-11 -0.04582226506)
(0.5204811399 2.07478017e-11 -0.04584758167)
(0.5204803934 2.076926998e-11 -0.04587591792)
(0.5204795546 2.086525683e-11 -0.0459061928)
(0.5204787717 2.101332326e-11 -0.04593670579)
(0.5204781975 2.117482451e-11 -0.04596568195)
)
;

boundaryField
{
    left
    {
        type            calculated;
        value           uniform (-0.5209049983 -3.49709526e-11 0.04054820452);
    }
    right
    {
        type            calculated;
        value           uniform (0.5204779399 1.448808461e-11 -0.04599189343);
    }
    beam
    {
        type            empty;
        value           nonuniform List<vector> 0();
    }
}


// ************************************************************************* //
