/*--------------------------------*- C++ -*----------------------------------*\
| =========                 |                                                 |
| \\      /  F ield         | OpenFOAM: The Open Source CFD Toolbox           |
|  \\    /   O peration     | Version:  2312                                  |
|   \\  /    A nd           | Website:  www.openfoam.com                      |
|    \\/     M anipulation  |                                                 |
\*---------------------------------------------------------------------------*/
FoamFile
{
    version     2.0;
    format      ascii;
    arch        "LSB;label=32;scalar=64";
    class       volVectorField;
    location    "0.22/beam";
    object      Theta;
}
// * * * * * * * * * * * * * * * * * * * * * * * * * * * * * * * * * * * * * //

dimensions      [0 0 0 0 0 0 0];

internalField   nonuniform List<vector> 
60
(
(-2.717756846e-13 0.07765295502 5.388547807e-11)
(-2.684738563e-13 0.07767325403 5.388980298e-11)
(-2.618797266e-13 0.07771009543 5.389772317e-11)
(-2.520145287e-13 0.07776548182 5.390902217e-11)
(-2.389119108e-13 0.07783782261 5.392337958e-11)
(-2.226199864e-13 0.07792753616 5.394037457e-11)
(-2.032040823e-13 0.07803370489 5.395949104e-11)
(-1.807501428e-13 0.07815608645 5.39801205e-11)
(-1.553681131e-13 0.07829392115 5.400157161e-11)
(-1.271961401e-13 0.0784466578 5.402307431e-11)
(-9.64045652e-14 0.07861353282 5.404378736e-11)
(-6.319938497e-14 0.07879383636 5.406280888e-11)
(-2.782574874e-14 0.07898676778 5.407918273e-11)
(9.429550324e-15 0.07919153709 5.409190668e-11)
(4.823670196e-14 0.0794073191 5.409994159e-11)
(8.822280952e-14 0.07963329535 5.410221945e-11)
(1.289735692e-13 0.0798686429 5.409765751e-11)
(1.700355333e-13 0.08011255392 5.408514258e-11)
(2.109225643e-13 0.08036423555 5.406357144e-11)
(2.511211164e-13 0.08062291989 5.403182635e-11)
(2.900991338e-13 0.08088786607 5.39887895e-11)
(3.273156972e-13 0.08115836487 5.393334183e-11)
(3.622297432e-13 0.08143372321 5.386435956e-11)
(3.943190314e-13 0.08171332657 5.378069848e-11)
(4.230815349e-13 0.08199654226 5.368120024e-11)
(4.480524619e-13 0.08228277585 5.356467137e-11)
(4.688167206e-13 0.08257144737 5.342985877e-11)
(4.850153506e-13 0.08286197988 5.32754513e-11)
(4.963574293e-13 0.08315378491 5.310001511e-11)
(5.026233642e-13 0.08344624475 5.290203454e-11)
(5.036780771e-13 0.08373869179 5.267986271e-11)
(4.994515191e-13 0.08403038532 5.243162642e-11)
(4.899680192e-13 0.08432048671 5.215535704e-11)
(4.753225784e-13 0.0846080341 5.18489443e-11)
(4.556837613e-13 0.08489191842 5.151009992e-11)
(4.31283068e-13 0.0851708633 5.113648664e-11)
(4.024098924e-13 0.08544341172 5.072575738e-11)
(3.693970524e-13 0.08570792345 5.027569421e-11)
(3.326131171e-13 0.08596258729 4.978435886e-11)
(2.924460076e-13 0.08620545335 4.925031161e-11)
(2.492928314e-13 0.08643448882 4.867286538e-11)
(2.035409629e-13 0.08664766277 4.805239405e-11)
(1.555528444e-13 0.08684305974 4.739067869e-11)
(1.056399053e-13 0.08701902527 4.669127329e-11)
(5.403562627e-14 0.08717433166 4.595988207e-11)
(8.538094277e-16 0.08730836396 4.52046993e-11)
(-5.395722535e-14 0.08742128998 4.443668734e-11)
(-1.10672305e-13 0.08751421766 4.366973258e-11)
(-1.69836645e-13 0.0875892559 4.292063317e-11)
(-2.322884361e-13 0.08764952356 4.220885028e-11)
(-2.990950909e-13 0.08769892963 4.155598022e-11)
(-3.713470676e-13 0.0877419333 4.098491221e-11)
(-4.496969225e-13 0.08778289391 4.051857444e-11)
(-5.336043296e-13 0.08782571473 4.017828895e-11)
(-6.203475862e-13 0.08787278876 3.998157961e-11)
(-7.042376485e-13 0.08792524503 3.993949473e-11)
(-7.7677147e-13 0.08798160012 4.005518312e-11)
(-8.273188044e-13 0.08803997024 4.033628912e-11)
(-8.415984591e-13 0.08809473825 4.088908799e-11)
(-9.33461517e-13 0.08813930604 4.242506101e-11)
)
;

boundaryField
{
    left
    {
        type            momentBeamRotationNR;
        value           uniform (-2.717756846e-13 0.07765295502 5.388547807e-11);
        momentSeries    
{
        file            "$FOAM_CASE/constant/beam/timeVsMoment";
        outOfBounds     clamp;
}
        moment          uniform (0 0 0);
    }
    right
    {
        type            momentBeamRotationNR;
        value           uniform (-9.33461517e-13 0.08813930604 4.242506101e-11);
        momentSeries    
{
        file            "$FOAM_CASE/constant/beam/timeVsMoment";
        outOfBounds     clamp;
}
        moment          uniform (0 0 0);
    }
    beam
    {
        type            empty;
    }
}


// ************************************************************************* //
