/*--------------------------------*- C++ -*----------------------------------*\
| =========                 |                                                 |
| \\      /  F ield         | OpenFOAM: The Open Source CFD Toolbox           |
|  \\    /   O peration     | Version:  2312                                  |
|   \\  /    A nd           | Website:  www.openfoam.com                      |
|    \\/     M anipulation  |                                                 |
\*---------------------------------------------------------------------------*/
FoamFile
{
    version     2.0;
    format      ascii;
    arch        "LSB;label=32;scalar=64";
    class       volVectorField;
    location    "0.22/beam";
    object      W;
}
// * * * * * * * * * * * * * * * * * * * * * * * * * * * * * * * * * * * * * //

dimensions      [0 1 0 0 0 0 0];

internalField   nonuniform List<vector> 
60
(
(9.686696943e-06 1.198281553e-12 -0.001724212793)
(2.902903622e-05 3.592920321e-12 -0.005173037214)
(4.827835058e-05 5.987783948e-12 -0.008623056034)
(6.737309332e-05 8.383015347e-12 -0.01207505853)
(8.62524212e-05 1.077874704e-11 -0.01552982362)
(0.0001048564619 1.317509713e-11 -0.0189881159)
(0.0001231265709 1.557216546e-11 -0.0224506819)
(0.0001410055717 1.797002987e-11 -0.02591824665)
(0.0001584379799 2.036874274e-11 -0.02939151046)
(0.0001753702046 2.276832779e-11 -0.03287114608)
(0.0001917507275 2.516877701e-11 -0.03635779621)
(0.0002075302582 2.757004799e-11 -0.03985207147)
(0.0002226618622 2.997206148e-11 -0.04335454864)
(0.0002371010634 3.237469933e-11 -0.04686576947)
(0.0002508059175 3.47778025e-11 -0.05038623979)
(0.0002637370607 3.718116956e-11 -0.05391642908)
(0.0002758577293 3.958455545e-11 -0.05745677041)
(0.0002871337568 4.198767011e-11 -0.06100766072)
(0.0002975335454 4.439017753e-11 -0.06456946149)
(0.0003070280194 4.679169505e-11 -0.06814249962)
(0.0003155905594 4.919179223e-11 -0.07172706858)
(0.0003231969246 5.158998992e-11 -0.07532342971)
(0.0003298247951 5.398562368e-11 -0.07893160988)
(0.0003354552943 5.637838357e-11 -0.08255221652)
(0.0003400702109 5.876749893e-11 -0.08618522199)
(0.0003436542296 6.115227934e-11 -0.08983076999)
(0.0003461935939 6.35319721e-11 -0.09348898385)
(0.0003476770399 6.590576197e-11 -0.09715995558)
(0.0003480948916 6.827276045e-11 -0.1008437571)
(0.0003474401242 7.063200476e-11 -0.104540428)
(0.0003457075759 7.298244516e-11 -0.1082499849)
(0.0003428951805 7.532294235e-11 -0.1119724077)
(0.0003390033495 7.765225042e-11 -0.1157076472)
(0.0003340364006 7.996902034e-11 -0.1194556082)
(0.0003280021401 8.227178108e-11 -0.1232161559)
(0.0003209134729 8.455894686e-11 -0.1269890966)
(0.0003127881619 8.682880294e-11 -0.130774182)
(0.000303650524 8.907952472e-11 -0.1345710896)
(0.0002935312476 9.130917264e-11 -0.1383794261)
(0.0002824689533 9.351573081e-11 -0.1421987094)
(0.0002705098188 9.569711881e-11 -0.1460283747)
(0.0002577086273 9.785125849e-11 -0.1498677624)
(0.0002441278097 9.997611032e-11 -0.1537161298)
(0.0002298374869 1.020697754e-10 -0.1575726515)
(0.000214913485 1.041305616e-10 -0.1614364419)
(0.0001994359209 1.061571221e-10 -0.1653065711)
(0.0001834859277 1.081485495e-10 -0.1691821026)
(0.0001671427252 1.101045421e-10 -0.1730621254)
(0.0001504793814 1.120255116e-10 -0.1769458021)
(0.0001335591686 1.139127486e-10 -0.1808324088)
(0.0001164317022 1.157685089e-10 -0.184721379)
(9.913053034e-05 1.175961242e-10 -0.18861233)
(8.16719569e-05 1.193999983e-10 -0.1925050757)
(6.405636628e-05 1.211855659e-10 -0.1963996111)
(4.627166886e-05 1.22959084e-10 -0.2002960731)
(2.829918618e-05 1.247272867e-10 -0.2041946729)
(1.012044781e-05 1.264968007e-10 -0.2080956192)
(-8.275768133e-06 1.282733095e-10 -0.2119990381)
(-2.688718397e-05 1.300604231e-10 -0.2159049024)
(-4.568587853e-05 1.318580261e-10 -0.2198128948)
)
;

boundaryField
{
    left
    {
        type            fixedValue;
        value           uniform (0 0 0);
    }
    right
    {
        type            fixedValue;
        value           uniform (-5.512750218e-05 1.327584721e-10 -0.2217675818);
    }
    beam
    {
        type            empty;
    }
}


// ************************************************************************* //
