/*--------------------------------*- C++ -*----------------------------------*\
| =========                 |                                                 |
| \\      /  F ield         | OpenFOAM: The Open Source CFD Toolbox           |
|  \\    /   O peration     | Version:  2312                                  |
|   \\  /    A nd           | Website:  www.openfoam.com                      |
|    \\/     M anipulation  |                                                 |
\*---------------------------------------------------------------------------*/
FoamFile
{
    version     2.0;
    format      ascii;
    arch        "LSB;label=32;scalar=64";
    class       volScalarField;
    location    "0.03";
    object      p;
}
// * * * * * * * * * * * * * * * * * * * * * * * * * * * * * * * * * * * * * //

dimensions      [1 -1 -2 0 0 0 0];

internalField   nonuniform List<scalar> 
299556
(
19.37475261
19.37475783
19.37476309
19.37476839
19.37477378
19.37477925
19.37478484
19.37479056
19.37479644
19.37480249
19.37480874
19.37481521
19.37482191
19.37482887
19.3748361
19.37484363
19.37485147
19.37485964
19.37486815
19.37487703
19.37488628
19.37489592
19.37490596
19.37491641
19.37492727
19.37493855
19.37495025
19.37496236
19.37497489
19.37498782
19.37500114
19.37501484
19.37502888
19.37504324
19.37505789
19.37507278
19.37508788
19.37510313
19.37511848
19.37513386
19.37514921
19.37516446
19.37517951
19.3751943
19.37520873
19.37522271
19.37523615
19.37524896
19.37526103
19.37527228
19.37528261
19.37529193
19.37530015
19.37530719
19.37531298
19.37531745
19.37532053
19.37532218
19.37532237
19.37532105
19.37531821
19.37531385
19.37530796
19.37530057
19.37529169
19.37528136
19.37526962
19.37525653
19.37524214
19.37522652
19.37520973
19.37519185
19.37517296
19.37515312
19.37513242
19.37511093
19.37508873
19.37506588
19.37504247
19.37501854
19.37499417
19.37496941
19.37494432
19.37491894
19.37489333
19.37486752
19.37484156
19.37481548
19.37478932
19.37476312
19.37475779
19.37477342
19.37478914
19.37480502
19.37482112
19.37483749
19.3748542
19.37487132
19.3748889
19.37490701
19.3749257
19.37494504
19.37496509
19.37498591
19.37500754
19.37503006
19.37505351
19.37507794
19.37510341
19.37512997
19.37515764
19.37518648
19.37521651
19.37524775
19.37528024
19.37531398
19.37534898
19.37538522
19.3754227
19.37546139
19.37550124
19.37554219
19.3755842
19.37562716
19.37567098
19.37571554
19.37576071
19.37580634
19.37585226
19.37589829
19.37594421
19.37598981
19.37603486
19.3760791
19.37612227
19.37616411
19.37620433
19.37624265
19.37627878
19.37631244
19.37634335
19.37637124
19.37639584
19.37641691
19.37643423
19.3764476
19.37645683
19.37646178
19.37646233
19.37645839
19.37644991
19.37643685
19.37641924
19.37639711
19.37637055
19.37633964
19.37630453
19.37626536
19.37622231
19.37617557
19.37612534
19.37607185
19.37601532
19.37595597
19.37589404
19.37582975
19.37576333
19.37569498
19.37562492
19.37555334
19.37548043
19.37540636
19.37533129
19.37525538
19.37517876
19.37510156
19.3750239
19.37494589
19.37486764
19.37478924
19.37476293
19.37478887
19.37481496
19.37484131
19.37486802
19.37489519
19.37492293
19.37495134
19.37498051
19.37501056
19.37504159
19.37507368
19.37510695
19.3751415
19.3751774
19.37521477
19.37525369
19.37529424
19.37533651
19.37538058
19.37542651
19.37547437
19.3755242
19.37557607
19.37562999
19.37568599
19.37574407
19.37580423
19.37586644
19.37593064
19.37599679
19.37606477
19.37613449
19.3762058
19.37627854
19.37635251
19.3764275
19.37650325
19.37657948
19.37665588
19.37673212
19.37680783
19.37688261
19.37695606
19.37702775
19.37709721
19.37716399
19.37722762
19.37728762
19.37734351
19.37739484
19.37744114
19.377482
19.377517
19.37754576
19.37756796
19.3775833
19.37759153
19.37759245
19.37758592
19.37757183
19.37755016
19.37752093
19.37748419
19.37744009
19.37738878
19.37733048
19.37726545
19.37719397
19.37711638
19.37703299
19.37694419
19.37685034
19.37675182
19.376649
19.37654228
19.37643201
19.37631855
19.37620225
19.37608343
19.3759624
19.37583946
19.37571485
19.37558885
19.37546167
19.37533353
19.37520463
19.37507514
19.37494525
19.37481512
19.37476799
19.37480408
19.37484038
19.37487704
19.3749142
19.374952
19.37499059
19.37503011
19.37507071
19.37511251
19.37515568
19.37520034
19.37524663
19.37529468
19.37534464
19.37539663
19.37545078
19.37550721
19.37556602
19.37562733
19.37569124
19.37575783
19.37582718
19.37589934
19.37597437
19.3760523
19.37613312
19.37621683
19.3763034
19.37639275
19.37648479
19.37657941
19.37667644
19.37677568
19.37687692
19.37697987
19.37708424
19.37718968
19.37729578
19.37740213
19.37750825
19.37761364
19.37771775
19.37782001
19.37791981
19.37801652
19.3781095
19.37819809
19.37828163
19.37835946
19.37843093
19.37849541
19.37855231
19.37860105
19.37864112
19.37867205
19.37869342
19.37870489
19.37870619
19.3786971
19.3786775
19.37864735
19.37860665
19.37855552
19.37849412
19.37842269
19.37834154
19.37825101
19.37815151
19.37804348
19.37792741
19.3778038
19.37767315
19.37753601
19.3773929
19.37724435
19.37709086
19.37693294
19.37677107
19.3766057
19.37643726
19.37626615
19.37609274
19.37591737
19.37574038
19.37556206
19.37538267
19.37520247
19.37502172
19.37484063
19.37477294
19.37481895
19.37486524
19.37491198
19.37495936
19.37500757
19.37505677
19.37510717
19.37515893
19.37521224
19.37526728
19.37532422
19.37538325
19.37544453
19.37550824
19.37557453
19.37564358
19.37571553
19.37579053
19.37586872
19.37595022
19.37603514
19.37612357
19.37621561
19.37631129
19.37641067
19.37651376
19.37662053
19.37673093
19.3768449
19.3769623
19.37708299
19.37720675
19.37733335
19.3774625
19.37759384
19.37772699
19.3778615
19.37799687
19.37813257
19.37826797
19.37840245
19.3785353
19.37866579
19.37879315
19.37891658
19.37903525
19.37914832
19.37925495
19.3793543
19.37944553
19.37952786
19.3796005
19.37966273
19.3797139
19.37975339
19.3797807
19.37979536
19.37979704
19.37978546
19.37976047
19.379722
19.37967008
19.37960484
19.37952649
19.37943535
19.37933179
19.37921627
19.3790893
19.37895146
19.37880335
19.37864562
19.37847892
19.37830394
19.37812135
19.37793181
19.37773599
19.37753453
19.37732802
19.37711706
19.37690218
19.3766839
19.3764627
19.37623901
19.37601324
19.37578578
19.37555697
19.37532713
19.37509657
19.37486559
19.37477775
19.3748334
19.37488939
19.37494593
19.37500324
19.37506155
19.37512107
19.37518203
19.37524464
19.37530912
19.3753757
19.37544458
19.37551598
19.37559011
19.37566717
19.37574737
19.3758309
19.37591794
19.37600867
19.37610326
19.37620185
19.37630459
19.37641158
19.37652292
19.37663869
19.37675893
19.37688365
19.37701284
19.37714643
19.37728433
19.3774264
19.37757244
19.37772222
19.37787543
19.37803172
19.37819069
19.37835184
19.37851466
19.37867852
19.37884278
19.3790067
19.37916951
19.37933035
19.37948834
19.37964255
19.37979201
19.37993571
19.38007265
19.38020179
19.38032212
19.38043263
19.38053235
19.38062034
19.38069574
19.38075774
19.38080561
19.38083871
19.3808565
19.38085857
19.38084458
19.38081435
19.38076779
19.38070494
19.38062596
19.38053111
19.38042076
19.38029538
19.38015552
19.38000181
19.37983492
19.37965562
19.37946466
19.37926287
19.37905104
19.37883001
19.37860059
19.37836357
19.37811972
19.37786977
19.37761444
19.37735439
19.37709022
19.37682252
19.37655182
19.37627862
19.37600336
19.37572648
19.37544836
19.37516937
19.37488987
19.37478238
19.37484734
19.37491269
19.37497867
19.37504557
19.37511362
19.37518309
19.37525423
19.37532731
19.37540257
19.37548028
19.37556067
19.37564401
19.37573053
19.37582048
19.37591409
19.37601159
19.37611319
19.3762191
19.37632951
19.3764446
19.37656452
19.37668942
19.3768194
19.37695456
19.37709493
19.37724054
19.37739137
19.37754735
19.37770836
19.37787425
19.37804478
19.37821968
19.3783986
19.37858113
19.37876679
19.37895501
19.37914518
19.37933659
19.37952847
19.37971996
19.37991016
19.38009808
19.38028269
19.38046288
19.38063753
19.38080547
19.3809655
19.38111644
19.38125709
19.38138627
19.38150285
19.38160573
19.38169389
19.38176639
19.38182238
19.38186111
19.38188196
19.38188442
19.38186811
19.38183282
19.38177845
19.38170503
19.38161277
19.38150196
19.38137304
19.38122655
19.38106314
19.38088355
19.38068858
19.3804791
19.38025602
19.38002027
19.37977283
19.37951464
19.37924665
19.3789698
19.37868498
19.37839306
19.37809486
19.37779115
19.37748265
19.37717003
19.37685393
19.3765349
19.37621349
19.37589018
19.37556543
19.37523967
19.37491332
19.37478682
19.37486068
19.37493498
19.37501001
19.37508607
19.37516345
19.37524244
19.37532333
19.37540643
19.37549201
19.37558036
19.37567178
19.37576655
19.37586493
19.37596722
19.37607367
19.37618453
19.37630007
19.37642051
19.37654607
19.37667696
19.37681335
19.37695539
19.37710323
19.37725695
19.37741661
19.37758223
19.3777538
19.37793122
19.37811439
19.3783031
19.37849711
19.37869609
19.37889966
19.37910735
19.3793186
19.37953279
19.3797492
19.37996704
19.38018543
19.38040339
19.38061989
19.38083381
19.38104397
19.38124912
19.38144797
19.38163919
19.38182143
19.38199333
19.38215351
19.38230065
19.38243344
19.38255064
19.38265109
19.38273371
19.38279753
19.38284169
19.38286548
19.38286834
19.38284983
19.38280969
19.38274782
19.38266428
19.38255926
19.38243312
19.38228637
19.38211962
19.3819336
19.38172917
19.38150723
19.38126878
19.38101485
19.38074653
19.38046489
19.38017104
19.37986605
19.37955099
19.37922687
19.37889469
19.37855537
19.3782098
19.37785879
19.37750312
19.37714347
19.37678052
19.37641487
19.37604706
19.37567762
19.37530704
19.37493579
19.37479103
19.37487334
19.37495613
19.37503975
19.3751245
19.37521073
19.37529876
19.37538891
19.37548151
19.37557688
19.37567534
19.37577722
19.37588283
19.37599248
19.37610647
19.37622511
19.37634867
19.37647744
19.37661167
19.37675162
19.3768975
19.37704952
19.37720786
19.37737264
19.37754399
19.37772198
19.37790661
19.37809788
19.37829569
19.3784999
19.37871031
19.37892663
19.37914851
19.37937551
19.37960712
19.37984272
19.38008161
19.38032299
19.38056598
19.38080959
19.38105275
19.38129429
19.38153297
19.38176747
19.3819964
19.38221831
19.38243173
19.38263514
19.38282701
19.38300583
19.3831701
19.38331836
19.38344924
19.38356142
19.3836537
19.383725
19.38377436
19.38380099
19.38380424
19.38378365
19.38373891
19.38366992
19.38357672
19.38345956
19.38331884
19.3831551
19.38296905
19.38276151
19.38253341
19.38228579
19.38201976
19.38173647
19.38143713
19.38112295
19.38079515
19.38045496
19.38010354
19.37974204
19.37937155
19.37899313
19.37860775
19.37821632
19.3778197
19.37741868
19.37701397
19.37660626
19.37619616
19.37578425
19.37537107
19.37495714
19.37479499
19.37488524
19.37497602
19.3750677
19.37516064
19.37525518
19.3753517
19.37545055
19.37555209
19.37565666
19.37576463
19.37587634
19.37599215
19.37611238
19.37623739
19.37636748
19.37650298
19.37664419
19.3767914
19.37694488
19.37710487
19.37727159
19.37744525
19.37762598
19.37781392
19.37800915
19.37821167
19.37842148
19.37863847
19.3788625
19.37909333
19.37933067
19.37957412
19.3798232
19.38007734
19.38033588
19.38059805
19.38086297
19.38112966
19.38139706
19.38166398
19.38192915
19.38219119
19.38244866
19.38270003
19.38294373
19.3831781
19.38340151
19.38361226
19.38380868
19.38398914
19.38415204
19.38429584
19.38441912
19.38452055
19.38459894
19.38465323
19.38468255
19.3846862
19.38466366
19.3846146
19.38453889
19.3844366
19.384308
19.38415351
19.38397375
19.38376948
19.38354163
19.38329121
19.38301936
19.38272731
19.38241632
19.38208772
19.38174285
19.38138306
19.38100966
19.38062397
19.38022723
19.37982066
19.37940539
19.3789825
19.37855299
19.37811781
19.3776778
19.37723378
19.37678646
19.37633654
19.37588464
19.37543135
19.37497725
19.37479867
19.3748963
19.37499452
19.3750937
19.37519424
19.37529652
19.37540094
19.37550788
19.37561773
19.37573086
19.37584767
19.37596853
19.37609382
19.37622391
19.37635915
19.3764999
19.37664651
19.3767993
19.37695858
19.37712465
19.37729776
19.37747817
19.37766609
19.37786167
19.37806506
19.37827633
19.37849551
19.37872258
19.37895745
19.37919993
19.37944979
19.3797067
19.37997025
19.3802399
19.38051505
19.38079498
19.38107885
19.38136572
19.38165454
19.38194413
19.38223323
19.38252044
19.38280429
19.38308322
19.38335555
19.38361959
19.38387355
19.38411564
19.38434404
19.38455693
19.38475253
19.38492912
19.38508502
19.3852187
19.38532869
19.38541372
19.38547264
19.3855045
19.38550854
19.38548419
19.3854311
19.38534914
19.38523837
19.38509908
19.38493174
19.38473702
19.38451576
19.38426894
19.38399768
19.38370322
19.38338687
19.38305004
19.38269414
19.38232063
19.38193098
19.38152661
19.38110895
19.38067936
19.38023913
19.37978951
19.37933165
19.37886666
19.37839553
19.37791921
19.37743854
19.37695433
19.37646731
19.37597816
19.37548751
19.37499598
19.37480206
19.37490647
19.3750115
19.37511758
19.3752251
19.37533449
19.37544617
19.37556054
19.37567802
19.37579902
19.37592395
19.37605322
19.37618722
19.37632636
19.37647101
19.37662156
19.37677837
19.3769418
19.37711217
19.37728981
19.37747499
19.37766798
19.377869
19.37807824
19.37829582
19.37852185
19.37875636
19.37899931
19.37925061
19.37951007
19.37977744
19.38005237
19.3803344
19.380623
19.38091749
19.38121711
19.38152098
19.38182807
19.38213726
19.38244731
19.38275684
19.38306438
19.38336834
19.38366705
19.38395872
19.38424153
19.38451357
19.38477291
19.3850176
19.3852457
19.38545529
19.38564452
19.38581162
19.3859549
19.38607282
19.386164
19.38622721
19.38626143
19.38626585
19.38623985
19.38618306
19.38609533
19.38597675
19.38582761
19.38564843
19.38543992
19.38520298
19.38493867
19.3846482
19.38433288
19.38399415
19.38363348
19.38325241
19.38285252
19.38243535
19.38200246
19.38155535
19.38109548
19.38062426
19.380143
19.37965296
19.3791553
19.37865109
19.37814133
19.37762695
19.37710879
19.37658763
19.37606419
19.37553917
19.37501321
19.37480512
19.37491567
19.37502688
19.37513919
19.37525304
19.37536887
19.37548711
19.37560821
19.3757326
19.37586072
19.375993
19.37612988
19.37627177
19.3764191
19.37657227
19.37673169
19.37689774
19.3770708
19.37725122
19.37743934
19.37763545
19.37783984
19.37805273
19.37827433
19.37850478
19.37874418
19.37899257
19.37924991
19.37951611
19.37979096
19.38007421
19.38036547
19.38066428
19.38097005
19.38128209
19.38159958
19.38192158
19.38224703
19.38257472
19.38290333
19.38323143
19.38355744
19.38387967
19.38419635
19.3845056
19.38480547
19.38509395
19.38536897
19.38562849
19.38587043
19.38609275
19.3862935
19.38647078
19.38662281
19.38674796
19.38684475
19.38691188
19.38694827
19.38695304
19.38692556
19.38686542
19.38677246
19.38664678
19.3864887
19.38629876
19.38607772
19.38582654
19.38554634
19.38523841
19.38490415
19.38454507
19.38416276
19.38375884
19.38333498
19.38289283
19.38243404
19.3819602
19.38147287
19.38097352
19.38046356
19.37994432
19.37941701
19.3788828
19.37834273
19.37779777
19.37724882
19.37669671
19.3761422
19.37558601
19.37502883
19.37480784
19.37492385
19.37504055
19.37515841
19.37527788
19.37539942
19.37552351
19.37565059
19.37578112
19.37591558
19.37605439
19.37619803
19.37634694
19.37650155
19.3766623
19.3768296
19.37700388
19.37718551
19.37737486
19.3775723
19.37777813
19.37799265
19.37821611
19.37844871
19.37869061
19.37894191
19.37920266
19.37947281
19.37975226
19.38004082
19.3803382
19.38064401
19.38095776
19.38127883
19.3816065
19.38193992
19.38227808
19.38261988
19.38296407
19.38330924
19.38365389
19.38399637
19.38433491
19.38466763
19.38499257
19.38530767
19.38561082
19.38589986
19.38617261
19.38642691
19.38666062
19.38687166
19.38705805
19.38721791
19.38734953
19.38745134
19.38752198
19.38756031
19.38756542
19.38753662
19.3874735
19.38737589
19.38724389
19.38707783
19.38687829
19.38664607
19.38638218
19.38608781
19.3857643
19.38541314
19.38503592
19.3846343
19.38421
19.38376477
19.38330035
19.38281846
19.3823208
19.38180898
19.38128457
19.38074904
19.38020377
19.37965007
19.37908913
19.37852205
19.37794987
19.3773735
19.37679383
19.37621165
19.37562771
19.37504273
19.3748102
19.37493096
19.37505243
19.3751751
19.37529946
19.37542598
19.37555513
19.37568741
19.37582329
19.37596324
19.37610774
19.37625726
19.37641226
19.3765732
19.37674054
19.3769147
19.37709612
19.37728519
19.37748232
19.37768786
19.37790215
19.37812548
19.37835812
19.37860029
19.37885214
19.3791138
19.37938529
19.37966658
19.37995757
19.38025806
19.38056773
19.3808862
19.38121295
19.38154735
19.38188863
19.38223591
19.38258815
19.3829442
19.38330276
19.38366236
19.38402144
19.38437827
19.38473102
19.38507773
19.38541635
19.38574474
19.38606069
19.38636196
19.38664627
19.38691136
19.38715501
19.38737504
19.38756938
19.38773609
19.38787335
19.38797956
19.38805328
19.38809332
19.38809872
19.38806879
19.38800307
19.38790141
19.3877639
19.38759088
19.38738298
19.38714101
19.38686605
19.38655932
19.38622223
19.38585634
19.38546331
19.38504486
19.3846028
19.38413894
19.38365511
19.38315311
19.38263469
19.38210155
19.3815553
19.3809975
19.38042959
19.3798529
19.37926869
19.37867811
19.37808222
19.377482
19.37687834
19.37627208
19.375664
19.37505484
19.3748122
19.37493695
19.37506244
19.37518918
19.37531765
19.37544836
19.3755818
19.37571846
19.37585884
19.37600343
19.37615272
19.37630719
19.37646733
19.37663361
19.3768065
19.37698644
19.37717388
19.37736924
19.37757292
19.37778529
19.37800671
19.37823747
19.37847786
19.3787281
19.37898836
19.37925874
19.3795393
19.37983
19.38013072
19.38044127
19.38076133
19.38109049
19.38142822
19.38177386
19.38212663
19.38248562
19.38284976
19.38321785
19.38358854
19.38396034
19.3843316
19.38470057
19.38506533
19.38542387
19.38577407
19.38611369
19.38644048
19.38675209
19.38704618
19.38732041
19.38757247
19.38780011
19.3880012
19.3881737
19.38831576
19.38842569
19.38850202
19.38854351
19.38854918
19.38851829
19.38845039
19.3883453
19.38820313
19.38802424
19.38780926
19.38755906
19.38727473
19.38695755
19.38660899
19.38623064
19.38582424
19.38539157
19.38493449
19.3844549
19.38395467
19.38343566
19.38289971
19.38234855
19.38178387
19.38120726
19.38062021
19.38002412
19.37942026
19.37880984
19.37819395
19.37757358
19.37694967
19.37632309
19.37569462
19.37506505
19.37481381
19.37494179
19.37507053
19.37520055
19.37533235
19.37546644
19.37560333
19.37574353
19.37588754
19.37603588
19.37618904
19.37634752
19.37651181
19.3766824
19.37685977
19.37704438
19.37723669
19.37743712
19.37764609
19.37786399
19.37809116
19.37832793
19.37857458
19.37883134
19.37909838
19.37937582
19.37966371
19.37996201
19.38027061
19.38058929
19.38091774
19.38125554
19.38160214
19.38195688
19.38231895
19.38268741
19.38306117
19.383439
19.38381951
19.38420117
19.38458231
19.3849611
19.38533559
19.38570371
19.38606327
19.386412
19.38674756
19.38706755
19.38736957
19.3876512
19.38791008
19.38814389
19.38835044
19.38852765
19.38867359
19.38878654
19.38886499
19.38890767
19.38891356
19.3888819
19.38881223
19.38870438
19.38855844
19.38837479
19.38815409
19.38789722
19.3876053
19.38727967
19.38692181
19.38653338
19.38611615
19.38567197
19.38520274
19.38471041
19.38419691
19.38366415
19.38311401
19.38254828
19.38196868
19.38137686
19.38077434
19.38016255
19.37954281
19.37891634
19.37828427
19.37764762
19.37700734
19.37636432
19.37571938
19.37507331
19.37481502
19.37494544
19.37507664
19.37520914
19.37534345
19.3754801
19.3756196
19.37576247
19.37590923
19.3760604
19.37621648
19.37637798
19.37654541
19.37671926
19.37690002
19.37708816
19.37728414
19.37748841
19.37770138
19.37792344
19.37815497
19.37839628
19.37864766
19.37890935
19.37918152
19.3794643
19.37975773
19.38006177
19.38037632
19.38070115
19.38103595
19.38138028
19.3817336
19.38209521
19.38246431
19.38283994
19.38322097
19.38360617
19.38399412
19.38438325
19.38477185
19.38515808
19.38553993
19.3859153
19.38628196
19.38663758
19.38697978
19.38730613
19.38761415
19.38790139
19.38816543
19.38840392
19.38861461
19.38879538
19.38894427
19.38905952
19.38913958
19.38918315
19.38918921
19.38915697
19.38908597
19.38897602
19.38882723
19.38863999
19.38841495
19.38815303
19.38785538
19.38752333
19.38715844
19.38676238
19.38633696
19.38588406
19.38540564
19.38490367
19.38438012
19.38383696
19.38327608
19.38269932
19.38210845
19.38150512
19.38089089
19.38026723
19.37963547
19.37899687
19.37835256
19.3777036
19.37705095
19.3763955
19.3757381
19.37507955
19.37481584
19.37494789
19.37508073
19.37521489
19.37535089
19.37548925
19.3756305
19.37577516
19.37592377
19.37607683
19.37623487
19.3763984
19.37656793
19.37674396
19.37692699
19.3771175
19.37731595
19.37752278
19.37773843
19.37796329
19.37819774
19.37844209
19.37869664
19.37896163
19.37923725
19.3795236
19.37982074
19.38012864
19.38044717
19.38077613
19.38111518
19.3814639
19.38182171
19.38218795
19.38256176
19.38294219
19.38332811
19.38371825
19.38411118
19.38450533
19.38489894
19.38529016
19.38567695
19.38605719
19.3864286
19.38678886
19.38713552
19.38746613
19.38777818
19.38806918
19.3883367
19.38857833
19.3887918
19.38897496
19.38912583
19.38924262
19.38932377
19.38936795
19.38937411
19.38934149
19.38926959
19.38915824
19.38900754
19.38881788
19.38858994
19.38832463
19.38802312
19.38768678
19.38731717
19.38691599
19.38648507
19.38602632
19.38554173
19.38503329
19.38450301
19.38395286
19.38338478
19.38280062
19.38220218
19.38159113
19.38096905
19.38033742
19.37969761
19.37905087
19.37839836
19.37774114
19.37708019
19.37641641
19.37575066
19.37508374
19.37481625
19.37494912
19.37508279
19.37521778
19.37535462
19.37549384
19.37563597
19.37578153
19.37593106
19.37608507
19.37624409
19.37640864
19.37657922
19.37675635
19.37694052
19.37713221
19.3773319
19.37754002
19.37775702
19.37798328
19.37821919
19.37846507
19.37872121
19.37898786
19.3792652
19.37955334
19.37985235
19.38016218
19.38048272
19.38081374
19.38115493
19.38150584
19.38186592
19.38223447
19.38261065
19.38299349
19.38338186
19.38377448
19.38416992
19.38456657
19.38496271
19.38535643
19.3857457
19.38612838
19.38650219
19.38686476
19.38721367
19.38754641
19.38786049
19.38815339
19.38842264
19.38866585
19.38888072
19.38906508
19.38921695
19.38933451
19.3894162
19.38946068
19.38946691
19.38943409
19.38936175
19.38924969
19.38909803
19.38890716
19.38867775
19.38841074
19.3881073
19.38776881
19.38739683
19.38699307
19.38655939
19.38609771
19.38561002
19.38509833
19.38456467
19.38401102
19.38343932
19.38285146
19.38224921
19.38163429
19.38100827
19.38037265
19.37972879
19.37907797
19.37842134
19.37775998
19.37709486
19.3764269
19.37575696
19.37508584
19.37481625
19.37494912
19.37508279
19.37521778
19.37535462
19.37549384
19.37563597
19.37578153
19.37593106
19.37608507
19.37624409
19.37640864
19.37657922
19.37675635
19.37694052
19.37713221
19.3773319
19.37754002
19.37775702
19.37798328
19.37821919
19.37846507
19.37872121
19.37898786
19.3792652
19.37955334
19.37985235
19.38016218
19.38048272
19.38081374
19.38115493
19.38150584
19.38186592
19.38223447
19.38261065
19.38299349
19.38338186
19.38377448
19.38416992
19.38456657
19.38496271
19.38535643
19.3857457
19.38612838
19.38650219
19.38686476
19.38721367
19.38754641
19.38786049
19.38815339
19.38842264
19.38866585
19.38888072
19.38906508
19.38921695
19.38933451
19.3894162
19.38946068
19.38946691
19.38943409
19.38936174
19.38924969
19.38909802
19.38890715
19.38867775
19.38841074
19.3881073
19.38776881
19.38739682
19.38699307
19.38655939
19.38609771
19.38561002
19.38509833
19.38456467
19.38401102
19.38343932
19.38285146
19.38224921
19.38163429
19.38100827
19.38037265
19.37972879
19.37907797
19.37842134
19.37775998
19.37709486
19.3764269
19.37575696
19.37508584
19.37481584
19.37494789
19.37508073
19.37521489
19.37535089
19.37548925
19.3756305
19.37577516
19.37592377
19.37607683
19.37623487
19.3763984
19.37656793
19.37674396
19.37692699
19.3771175
19.37731595
19.37752278
19.37773843
19.37796329
19.37819774
19.37844209
19.37869664
19.37896164
19.37923725
19.3795236
19.37982074
19.38012864
19.38044717
19.38077613
19.38111518
19.3814639
19.38182172
19.38218795
19.38256176
19.38294219
19.38332811
19.38371825
19.38411119
19.38450533
19.38489894
19.38529016
19.38567696
19.38605719
19.38642861
19.38678886
19.38713552
19.38746613
19.38777818
19.38806918
19.38833669
19.38857833
19.3887918
19.38897496
19.38912583
19.38924262
19.38932376
19.38936794
19.38937411
19.38934148
19.38926959
19.38915823
19.38900753
19.38881787
19.38858993
19.38832462
19.38802312
19.38768678
19.38731717
19.38691599
19.38648507
19.38602632
19.38554173
19.38503329
19.38450301
19.38395286
19.38338478
19.38280063
19.38220218
19.38159113
19.38096905
19.38033743
19.37969761
19.37905087
19.37839836
19.37774114
19.37708019
19.37641641
19.37575066
19.37508374
19.37481502
19.37494544
19.37507664
19.37520914
19.37534345
19.3754801
19.3756196
19.37576247
19.37590923
19.3760604
19.37621648
19.37637798
19.37654541
19.37671926
19.37690002
19.37708816
19.37728414
19.37748841
19.37770138
19.37792345
19.37815497
19.37839628
19.37864766
19.37890935
19.37918152
19.3794643
19.37975773
19.38006177
19.38037632
19.38070115
19.38103595
19.38138028
19.3817336
19.38209522
19.38246432
19.38283994
19.38322098
19.38360618
19.38399412
19.38438325
19.38477186
19.38515808
19.38553994
19.3859153
19.38628196
19.38663758
19.38697979
19.38730613
19.38761415
19.38790139
19.38816543
19.38840392
19.38861461
19.38879537
19.38894426
19.38905951
19.38913957
19.38918314
19.3891892
19.38915696
19.38908596
19.38897601
19.38882722
19.38863998
19.38841494
19.38815303
19.38785537
19.38752333
19.38715844
19.38676239
19.38633696
19.38588407
19.38540564
19.38490367
19.38438013
19.38383696
19.38327609
19.38269933
19.38210845
19.38150512
19.38089089
19.38026723
19.37963547
19.37899687
19.37835256
19.3777036
19.37705095
19.3763955
19.3757381
19.37507955
19.37481381
19.37494179
19.37507053
19.37520055
19.37533235
19.37546644
19.37560333
19.37574353
19.37588754
19.37603588
19.37618904
19.37634752
19.37651181
19.3766824
19.37685977
19.37704439
19.37723669
19.37743712
19.37764609
19.37786399
19.37809116
19.37832793
19.37857458
19.37883134
19.37909838
19.37937583
19.37966371
19.37996201
19.38027061
19.38058929
19.38091774
19.38125554
19.38160215
19.38195688
19.38231895
19.38268741
19.38306117
19.383439
19.38381951
19.38420118
19.38458232
19.38496111
19.3853356
19.38570371
19.38606327
19.386412
19.38674756
19.38706755
19.38736957
19.3876512
19.38791008
19.38814389
19.38835044
19.38852764
19.38867358
19.38878653
19.38886498
19.38890766
19.38891354
19.38888188
19.38881221
19.38870436
19.38855842
19.38837478
19.38815408
19.38789721
19.3876053
19.38727966
19.38692181
19.38653338
19.38611615
19.38567197
19.38520275
19.38471042
19.38419691
19.38366416
19.38311401
19.38254828
19.38196869
19.38137687
19.38077434
19.38016255
19.37954281
19.37891634
19.37828427
19.37764762
19.37700734
19.37636432
19.37571938
19.37507331
19.3748122
19.37493695
19.37506244
19.37518918
19.37531765
19.37544836
19.3755818
19.37571846
19.37585884
19.37600343
19.37615272
19.37630719
19.37646734
19.37663362
19.3768065
19.37698645
19.37717389
19.37736924
19.37757292
19.37778529
19.37800671
19.37823748
19.37847787
19.3787281
19.37898836
19.37925874
19.3795393
19.37983
19.38013073
19.38044128
19.38076134
19.38109049
19.38142822
19.38177386
19.38212664
19.38248562
19.38284976
19.38321785
19.38358854
19.38396034
19.38433161
19.38470058
19.38506534
19.38542388
19.38577407
19.3861137
19.38644048
19.38675209
19.38704618
19.38732041
19.38757247
19.38780011
19.38800119
19.38817369
19.38831574
19.38842567
19.388502
19.38854349
19.38854916
19.38851827
19.38845037
19.38834529
19.38820312
19.38802423
19.38780925
19.38755906
19.38727472
19.38695755
19.38660899
19.38623065
19.38582424
19.38539157
19.3849345
19.3844549
19.38395467
19.38343567
19.38289971
19.38234856
19.38178388
19.38120727
19.38062022
19.38002412
19.37942027
19.37880985
19.37819395
19.37757358
19.37694968
19.37632309
19.37569462
19.37506505
19.3748102
19.37493096
19.37505243
19.3751751
19.37529946
19.37542598
19.37555514
19.37568741
19.37582329
19.37596324
19.37610774
19.37625726
19.37641226
19.37657321
19.37674054
19.3769147
19.37709612
19.3772852
19.37748232
19.37768786
19.37790215
19.37812548
19.37835812
19.37860029
19.37885215
19.3791138
19.37938529
19.37966659
19.37995758
19.38025806
19.38056774
19.38088621
19.38121296
19.38154736
19.38188864
19.38223591
19.38258816
19.38294421
19.38330276
19.38366237
19.38402144
19.38437827
19.38473102
19.38507773
19.38541635
19.38574474
19.38606069
19.38636196
19.38664627
19.38691136
19.387155
19.38737503
19.38756937
19.38773608
19.38787334
19.38797954
19.38805326
19.3880933
19.3880987
19.38806877
19.38800305
19.38790139
19.38776388
19.38759087
19.38738297
19.38714101
19.38686604
19.38655931
19.38622223
19.38585635
19.38546331
19.38504487
19.38460281
19.38413895
19.38365512
19.38315312
19.3826347
19.38210155
19.38155531
19.38099751
19.38042959
19.3798529
19.3792687
19.37867812
19.37808223
19.377482
19.37687834
19.37627208
19.375664
19.37505484
19.37480784
19.37492385
19.37504055
19.37515841
19.37527788
19.37539942
19.37552351
19.37565059
19.37578113
19.37591558
19.3760544
19.37619804
19.37634694
19.37650155
19.3766623
19.37682961
19.37700388
19.37718551
19.37737487
19.3775723
19.37777814
19.37799266
19.37821611
19.37844871
19.37869061
19.37894192
19.37920266
19.37947281
19.37975227
19.38004083
19.38033821
19.38064402
19.38095776
19.38127884
19.38160651
19.38193992
19.38227809
19.38261989
19.38296408
19.38330925
19.3836539
19.38399638
19.38433491
19.38466764
19.38499257
19.38530767
19.38561082
19.38589986
19.38617261
19.38642691
19.38666062
19.38687166
19.38705804
19.3872179
19.38734951
19.38745132
19.38752196
19.3875603
19.3875654
19.3875366
19.38747348
19.38737587
19.38724387
19.38707781
19.38687828
19.38664606
19.38638217
19.3860878
19.3857643
19.38541315
19.38503593
19.38463431
19.38421001
19.38376478
19.38330036
19.38281847
19.38232081
19.38180899
19.38128458
19.38074905
19.38020378
19.37965008
19.37908913
19.37852206
19.37794987
19.37737351
19.37679383
19.37621165
19.37562771
19.37504273
19.37480512
19.37491567
19.37502688
19.37513919
19.37525304
19.37536887
19.37548711
19.37560821
19.3757326
19.37586072
19.37599301
19.37612988
19.37627177
19.3764191
19.37657227
19.37673169
19.37689774