/*--------------------------------*- C++ -*----------------------------------*\
| =========                 |                                                 |
| \\      /  F ield         | OpenFOAM: The Open Source CFD Toolbox           |
|  \\    /   O peration     | Version:  2312                                  |
|   \\  /    A nd           | Website:  www.openfoam.com                      |
|    \\/     M anipulation  |                                                 |
\*---------------------------------------------------------------------------*/
FoamFile
{
    version     2.0;
    format      ascii;
    arch        "LSB;label=32;scalar=64";
    class       surfaceVectorField;
    location    "0.08/beam";
    object      Gamma;
}
// * * * * * * * * * * * * * * * * * * * * * * * * * * * * * * * * * * * * * //

dimensions      [0 0 0 0 0 0 0];

oriented        oriented;

internalField   nonuniform List<vector> 
59
(
(0.0001393985213 -7.533269334e-21 -7.312288527e-09)
(0.0001393986035 -4.035904995e-20 -7.895067547e-09)
(0.0001393987407 -9.42988464e-20 -8.833427741e-09)
(0.0001393989325 -1.681634252e-19 -1.007848533e-08)
(0.0001393991791 -2.602056609e-19 -1.156287231e-08)
(0.0001393994803 -3.681231809e-19 -1.320186853e-08)
(0.000139399836 -4.888047322e-19 -1.489502485e-08)
(0.0001394002462 -6.184330172e-19 -1.652834862e-08)
(0.0001394007107 -7.523005168e-19 -1.797694031e-08)
(0.0001394012295 -8.846570181e-19 -1.910831848e-08)
(0.0001394018024 -1.008804643e-18 -1.97863314e-08)
(0.0001394024294 -1.117137578e-18 -1.987546558e-08)
(0.0001394031106 -1.200934214e-18 -1.924562691e-08)
(0.0001394038457 -1.250530597e-18 -1.777682009e-08)
(0.000139404635 -1.255420508e-18 -1.536380732e-08)
(0.0001394054782 -1.204419212e-18 -1.191993532e-08)
(0.0001394063754 -1.085816823e-18 -7.380012896e-09)
(0.0001394073263 -8.879111986e-19 -1.701507255e-09)
(0.0001394083307 -5.992928001e-19 5.136216675e-09)
(0.000139409388 -2.09044136e-19 1.313510424e-08)
(0.0001394104977 2.923457167e-19 2.228404714e-08)
(0.0001394116588 9.124799341e-19 3.256690052e-08)
(0.00013941287 1.656240584e-18 4.397125548e-08)
(0.0001394141304 2.525304905e-18 5.650572164e-08)
(0.0001394154379 3.516139245e-18 7.019502615e-08)
(0.0001394167909 4.6204405e-18 8.510916703e-08)
(0.0001394181869 5.822048567e-18 1.013403642e-07)
(0.000139419624 7.097637934e-18 1.190245108e-07)
(0.000139421099 8.41308722e-18 1.382942512e-07)
(0.0001394226097 9.72064808e-18 1.592810773e-07)
(0.0001394241524 1.096625633e-17 1.820344237e-07)
(0.0001394257255 1.208360501e-17 2.065000064e-07)
(0.0001394273263 1.298406871e-17 2.324054613e-07)
(0.0001394289557 1.356998937e-17 2.592257553e-07)
(0.0001394306165 1.373067152e-17 2.860586047e-07)
(0.0001394323185 1.334630543e-17 3.116109312e-07)
(0.0001394340787 1.229247212e-17 3.341184859e-07)
(0.0001394359276 1.044642743e-17 3.514089439e-07)
(0.0001394379092 7.69860418e-18 3.609449764e-07)
(0.0001394400875 3.96119912e-18 3.600194504e-07)
(0.0001394425424 -8.124647924e-19 3.459922892e-07)
(0.0001394453706 -6.618925892e-18 3.166247156e-07)
(0.0001394486725 -1.337944115e-17 2.705059934e-07)
(0.0001394525439 -2.093537987e-17 2.074200764e-07)
(0.0001394570516 -2.902367106e-17 1.288097713e-07)
(0.0001394622225 -3.728366862e-17 3.79159162e-08)
(0.000139468021 -4.524285196e-17 -6.004392011e-08)
(0.0001394743549 -5.234075184e-17 -1.583142988e-07)
(0.0001394810758 -5.793209358e-17 -2.490747896e-07)
(0.0001394880164 -6.132324236e-17 -3.246557428e-07)
(0.0001394950122 -6.178687604e-17 -3.787334447e-07)
(0.0001395019464 -5.858459353e-17 -4.079673474e-07)
(0.0001395087561 -5.096290485e-17 -4.132538765e-07)
(0.0001395154432 -3.810838305e-17 -4.005951417e-07)
(0.0001395220433 -1.907374264e-17 -3.809516435e-07)
(0.0001395286128 7.395658795e-18 -3.688350009e-07)
(0.0001395351949 4.303721179e-17 -3.796980285e-07)
(0.0001395418157 9.037573467e-17 -4.266066914e-07)
(0.0001395484529 1.529144767e-16 -5.176524532e-07)
)
;

boundaryField
{
    left
    {
        type            calculated;
        value           uniform (-0.0001393984939 -4.517222259e-14 7.114677494e-09);
    }
    right
    {
        type            calculated;
        value           uniform (0.0001395550232 -4.493170141e-14 -6.567053102e-07);
    }
    beam
    {
        type            empty;
        value           nonuniform List<vector> 0();
    }
}


// ************************************************************************* //
