/*--------------------------------*- C++ -*----------------------------------*\
| =========                 |                                                 |
| \\      /  F ield         | OpenFOAM: The Open Source CFD Toolbox           |
|  \\    /   O peration     | Version:  2312                                  |
|   \\  /    A nd           | Website:  www.openfoam.com                      |
|    \\/     M anipulation  |                                                 |
\*---------------------------------------------------------------------------*/
FoamFile
{
    version     2.0;
    format      ascii;
    arch        "LSB;label=32;scalar=64";
    class       surfaceVectorField;
    location    "0.08/beam";
    object      K;
}
// * * * * * * * * * * * * * * * * * * * * * * * * * * * * * * * * * * * * * //

dimensions      [0 -1 0 0 0 0 0];

oriented        oriented;

internalField   nonuniform List<vector> 
59
(
(1.961121151e-19 -7.984643467e-05 2.175711152e-17)
(3.920012558e-19 -0.0001640126263 2.863346914e-16)
(5.874835461e-19 -0.0002565994081 1.031214909e-15)
(7.823535897e-19 -0.0003612730052 2.483487712e-15)
(9.764582507e-19 -0.0004810561526 4.854166443e-15)
(1.169598785e-18 -0.0006181297272 8.331683202e-15)
(1.361631413e-18 -0.0007736496279 1.307460408e-14)
(1.552524913e-18 -0.0009475847365 1.920301438e-14)
(1.741766113e-18 -0.001138581568 2.678995732e-14)
(1.929862349e-18 -0.00134386192 3.585073985e-14)
(2.116942422e-18 -0.001559160576 4.63315349e-14)
(2.302711512e-18 -0.001778708517 5.809935385e-14)
(2.487209565e-18 -0.001995266439 7.093082355e-14)
(2.670694001e-18 -0.002200210656 8.450088529e-14)
(2.853557409e-18 -0.002383670691 9.837276807e-14)
(3.036202739e-18 -0.002534713845 1.119896849e-13)
(3.220335153e-18 -0.002641566891 1.246680535e-13)
(3.405765567e-18 -0.00269186033 1.355947659e-13)
(3.592405043e-18 -0.002672875065 1.438287986e-13)
(3.781457627e-18 -0.00257176711 1.483054579e-13)
(3.972407154e-18 -0.002375743356 1.478470084e-13)
(4.163635546e-18 -0.002072171928 1.411812081e-13)
(4.352436002e-18 -0.00164855889 1.269661176e-13)
(4.534317254e-18 -0.001092431562 1.038235309e-13)
(4.703569724e-18 -0.0003911533461 7.038604968e-14)
(4.854380665e-18 0.0004684467829 2.535143929e-14)
(4.982623958e-18 0.001500437702 -3.244709232e-14)
(5.089152531e-18 0.002720151259 -1.039578491e-13)
(5.184385078e-18 0.004144406106 -1.898112161e-13)
(5.360265382e-18 0.005791483906 -2.901844466e-13)
(5.62206425e-18 0.007680668817 -4.046912496e-13)
(5.932649889e-18 0.009831219864 -5.322790678e-13)
(6.49250054e-18 0.01226058957 -6.710377806e-13)
(7.450978448e-18 0.01498181884 -8.180261793e-13)
(8.993676075e-18 0.01800004957 -9.691497394e-13)
(1.134259038e-17 0.02130827355 -1.119037994e-12)
(1.474310129e-17 0.02488255973 -1.260968447e-12)
(1.946270433e-17 0.02867718705 -1.386850396e-12)
(2.576736154e-17 0.03262036266 -1.487306975e-12)
(3.392829917e-17 0.03661126083 -1.551868589e-12)
(4.419073096e-17 0.04051945093 -1.569320928e-12)
(5.679123002e-17 0.0441874895 -1.528210119e-12)
(7.189265609e-17 0.04743772222 -1.417536891e-12)
(8.959064115e-17 0.05008348162 -1.227615571e-12)
(1.097716289e-16 0.05194488213 -9.510944397e-13)
(1.32054403e-16 0.0528679595 -5.84074046e-13)
(1.555615919e-16 0.05274556966 -1.272667488e-13)
(1.788378468e-16 0.05153685103 4.128971277e-13)
(1.996817631e-16 0.04928164059 1.023312763e-12)
(2.153053965e-16 0.04610554224 1.683463844e-12)
(2.226013381e-16 0.04221164925 2.364968256e-12)
(2.188389115e-16 0.03785658111 3.031330851e-12)
(2.025197222e-16 0.03331051369 3.637798881e-12)
(1.742257608e-16 0.0288054475 4.130947977e-12)
(1.371610715e-16 0.02447947768 4.447610422e-12)
(9.664426169e-17 0.02032966053 4.512434762e-12)
(5.880892689e-17 0.01618712325 4.233513423e-12)
(2.852341166e-17 0.01172506081 3.495353324e-12)
(8.396164114e-18 0.006499520481 2.149100776e-12)
)
;

boundaryField
{
    left
    {
        type            calculated;
        value           uniform (-1.109162112e-34 -9.193255411e-35 4.052807102e-33);
    }
    right
    {
        type            calculated;
        value           uniform (-5.498065712e-30 9.162070909e-27 -8.613603234e-31);
    }
    beam
    {
        type            empty;
        value           nonuniform List<vector> 0();
    }
}


// ************************************************************************* //
