/*--------------------------------*- C++ -*----------------------------------*\
| =========                 |                                                 |
| \\      /  F ield         | OpenFOAM: The Open Source CFD Toolbox           |
|  \\    /   O peration     | Version:  2312                                  |
|   \\  /    A nd           | Website:  www.openfoam.com                      |
|    \\/     M anipulation  |                                                 |
\*---------------------------------------------------------------------------*/
FoamFile
{
    version     2.0;
    format      ascii;
    arch        "LSB;label=32;scalar=64";
    class       surfaceVectorField;
    location    "0.08/beam";
    object      M;
}
// * * * * * * * * * * * * * * * * * * * * * * * * * * * * * * * * * * * * * //

dimensions      [1 2 -2 0 0 0 0];

oriented        oriented;

internalField   nonuniform List<vector> 
59
(
(-8.849570304e-23 -4.816225154e-08 1.28142068e-20)
(-1.67789854e-22 -9.893011999e-08 1.720775823e-19)
(-2.309300272e-22 -1.547771706e-07 6.210201618e-19)
(-2.752928745e-22 -2.179148189e-07 1.496605218e-18)
(-3.045025026e-22 -2.901663365e-07 2.926101339e-18)
(-3.301383456e-22 -3.728471976e-07 5.023159678e-18)
(-3.731746716e-22 -4.666546244e-07 7.883420616e-18)
(-4.65191139e-22 -5.715698469e-07 1.157931803e-17)
(-6.491544224e-22 -6.867764618e-07 1.615491585e-17)
(-9.798866056e-22 -8.105986961e-07 2.161945774e-17)
(-1.523831122e-21 -9.404638315e-07 2.794049249e-17)
(-2.357572067e-21 -1.072892075e-06 3.503782559e-17)
(-3.564796442e-21 -1.203516782e-06 4.277674946e-17)
(-5.230801396e-21 -1.327136265e-06 5.096122664e-17)
(-7.433660576e-21 -1.437796789e-06 5.932784116e-17)
(-1.023140296e-20 -1.528903905e-06 6.754078917e-17)
(-1.364467575e-20 -1.593356167e-06 7.518778889e-17)
(-1.763600786e-20 -1.623692465e-06 8.177843289e-17)
(-2.208762641e-20 -1.612240819e-06 8.674515807e-17)
(-2.678037627e-20 -1.551253916e-06 8.944580591e-17)
(-3.138037509e-20 -1.433015132e-06 8.917003242e-17)
(-3.5441266e-20 -1.249905097e-06 8.51504881e-17)
(-3.843043781e-20 -9.943876423e-07 7.657778255e-17)
(-3.978620113e-20 -6.589394241e-07 6.26206496e-17)
(-3.901247902e-20 -2.359382222e-07 4.245434284e-17)
(-3.580591312e-20 2.825605412e-07 1.529342354e-17)
(-3.020183229e-20 9.050430156e-07 -1.95658469e-17)
(-2.270466851e-20 1.640757158e-06 -6.269541361e-17)
(-1.435106492e-20 2.499847741e-06 -1.144754521e-16)
(-6.655375079e-21 3.493342011e-06 -1.750128095e-16)
(-1.264553446e-21 4.632871901e-06 -2.440744069e-16)
(7.465123503e-22 5.930054185e-06 -3.210252818e-16)
(-8.951653413e-23 7.395415979e-06 -4.047132077e-16)
(-7.068865203e-23 9.03682338e-06 -4.933640387e-16)
(9.783525464e-21 1.08573779e-05 -5.845080019e-16)
(4.625894239e-20 1.285285229e-05 -6.749057594e-16)
(1.367450259e-19 1.500881167e-05 -7.605025539e-16)
(3.221151694e-19 1.729767775e-05 -8.364185024e-16)
(6.593614803e-19 1.967614607e-05 -8.969981563e-16)
(1.223787487e-18 2.208339997e-05 -9.359272555e-16)
(2.110404872e-18 2.444076553e-05 -9.464427473e-16)
(3.434468703e-18 2.665327504e-05 -9.216375883e-16)
(5.330734966e-18 2.861376992e-05 -8.548795646e-16)
(7.951238328e-18 3.020965495e-05 -7.403295191e-16)
(1.146050788e-17 3.133242567e-05 -5.735568745e-16)
(1.602700432e-17 3.188921302e-05 -3.522141647e-16)
(2.180819849e-17 3.181538918e-05 -7.673628053e-17)
(2.892670195e-17 3.108630703e-05 2.489927409e-16)
(3.74343633e-17 2.972599566e-05 6.170635497e-16)
(4.726302281e-17 2.78102176e-05 1.015098204e-15)
(5.816323974e-17 2.546147587e-05 1.425977877e-15)
(6.963635301e-17 2.283455973e-05 1.827695768e-15)
(8.087000259e-17 2.009243551e-05 2.193271863e-15)
(9.068722936e-17 1.737504266e-05 2.490504571e-15)
(9.751733712e-17 1.476567823e-05 2.681324565e-15)
(9.938033122e-17 1.226256661e-05 2.720322026e-15)
(9.386219801e-17 9.763846127e-06 2.552108143e-15)
(7.803408965e-17 7.072392532e-06 2.107075149e-15)
(4.827718058e-17 3.920419761e-06 1.295502889e-15)
)
;

boundaryField
{
    left
    {
        type            calculated;
        value           uniform (-1.333438066e-37 -5.545242958e-38 2.444621761e-36);
    }
    right
    {
        type            calculated;
        value           uniform (-6.648101495e-33 5.526432903e-30 -2.557834056e-34);
    }
    beam
    {
        type            empty;
        value           nonuniform List<vector> 0();
    }
}


// ************************************************************************* //
