/*--------------------------------*- C++ -*----------------------------------*\
| =========                 |                                                 |
| \\      /  F ield         | OpenFOAM: The Open Source CFD Toolbox           |
|  \\    /   O peration     | Version:  2312                                  |
|   \\  /    A nd           | Website:  www.openfoam.com                      |
|    \\/     M anipulation  |                                                 |
\*---------------------------------------------------------------------------*/
FoamFile
{
    version     2.0;
    format      ascii;
    arch        "LSB;label=32;scalar=64";
    class       pointVectorField;
    location    "0.08/beam";
    object      pointW;
}
// * * * * * * * * * * * * * * * * * * * * * * * * * * * * * * * * * * * * * //

dimensions      [0 1 0 0 0 0 0];

internalField   nonuniform List<vector> 
1952
(
(-7.562488711e-07 2.569601471e-17 6.78227613e-11)
(-7.417175491e-07 2.51534904e-17 6.651954161e-11)
(-6.98683207e-07 2.363560736e-17 6.266008285e-11)
(-6.287982489e-07 2.125036258e-17 5.639257681e-11)
(-5.347492486e-07 1.82145965e-17 4.795796486e-11)
(-4.201491853e-07 1.431146868e-17 3.768026993e-11)
(-2.894032086e-07 9.974659987e-18 2.595456012e-11)
(-1.475367814e-07 5.204170428e-18 1.323153425e-11)
(-2.720519231e-17 0 -2.569087171e-17)
(1.475367813e-07 -5.204170428e-18 -1.323158466e-11)
(2.894032086e-07 -9.974659987e-18 -2.59546076e-11)
(4.201491853e-07 -1.431146868e-17 -3.768031286e-11)
(5.347492486e-07 -1.82145965e-17 -4.795800129e-11)
(6.287982488e-07 -2.125036258e-17 -5.639260543e-11)
(6.98683207e-07 -2.363560736e-17 -6.266010237e-11)
(7.41717549e-07 -2.51534904e-17 -6.651955202e-11)
(7.562488711e-07 -2.569601471e-17 -6.78227613e-11)
(7.417175491e-07 -2.51534904e-17 -6.651954161e-11)
(6.98683207e-07 -2.363560736e-17 -6.266008285e-11)
(6.287982489e-07 -2.125036258e-17 -5.639257681e-11)
(5.347492486e-07 -1.82145965e-17 -4.795796486e-11)
(4.201491853e-07 -1.431146868e-17 -3.768026993e-11)
(2.894032086e-07 -9.974659987e-18 -2.595456012e-11)
(1.475367814e-07 -5.204170428e-18 -1.323153425e-11)
(2.720526405e-17 0 2.569087171e-17)
(-1.475367813e-07 5.204170428e-18 1.323158466e-11)
(-2.894032086e-07 9.974659987e-18 2.59546076e-11)
(-4.201491853e-07 1.431146868e-17 3.768031286e-11)
(-5.347492486e-07 1.82145965e-17 4.795800129e-11)
(-6.287982488e-07 2.125036258e-17 5.639260543e-11)
(-6.98683207e-07 2.363560736e-17 6.266010237e-11)
(-7.41717549e-07 2.51534904e-17 6.651955202e-11)
(5.421866834e-06 7.245934142e-16 -8.333013546e-06)
(5.436262298e-06 7.240302108e-16 -8.333014828e-06)
(5.478894299e-06 7.225123277e-16 -8.333018622e-06)
(5.548125882e-06 7.199102425e-16 -8.333024785e-06)
(5.64129559e-06 7.168744764e-16 -8.333033078e-06)
(5.754824223e-06 7.129713486e-16 -8.333043183e-06)
(5.884347816e-06 7.086345399e-16 -8.333054712e-06)
(6.024887891e-06 7.042977312e-16 -8.333067222e-06)
(6.171045307e-06 6.990935608e-16 -8.333080232e-06)
(6.317202722e-06 6.938893904e-16 -8.333093242e-06)
(6.457742798e-06 6.8868522e-16 -8.333105751e-06)
(6.587266391e-06 6.843484113e-16 -8.333117281e-06)
(6.700795024e-06 6.804452835e-16 -8.333127386e-06)
(6.793964732e-06 6.774095174e-16 -8.333135679e-06)
(6.863196314e-06 6.75241113e-16 -8.333141842e-06)
(6.905828315e-06 6.7372323e-16 -8.333145636e-06)
(6.92022378e-06 6.732012844e-16 -8.333146918e-06)
(6.905828315e-06 6.7372323e-16 -8.333145636e-06)
(6.863196314e-06 6.75241113e-16 -8.333141842e-06)
(6.793964732e-06 6.774095174e-16 -8.333135679e-06)
(6.700795024e-06 6.804452835e-16 -8.333127386e-06)
(6.587266391e-06 6.843484113e-16 -8.333117281e-06)
(6.457742798e-06 6.8868522e-16 -8.333105751e-06)
(6.317202722e-06 6.938893904e-16 -8.333093242e-06)
(6.171045307e-06 6.990935608e-16 -8.333080232e-06)
(6.024887891e-06 7.042977312e-16 -8.333067222e-06)
(5.884347816e-06 7.086345399e-16 -8.333054712e-06)
(5.754824223e-06 7.129713486e-16 -8.333043183e-06)
(5.64129559e-06 7.168744764e-16 -8.333033078e-06)
(5.548125882e-06 7.199102425e-16 -8.333024785e-06)
(5.478894299e-06 7.225123277e-16 -8.333018622e-06)
(5.436262298e-06 7.240302108e-16 -8.333014828e-06)
(1.161454032e-05 4.23656069e-16 -1.650745426e-05)
(1.162852086e-05 4.230556877e-16 -1.650745547e-05)
(1.166992406e-05 4.217546451e-16 -1.650745905e-05)
(1.173716016e-05 4.193694003e-16 -1.650746487e-05)
(1.182764441e-05 4.163336342e-16 -1.65074727e-05)
(1.193790077e-05 4.124305064e-16 -1.650748224e-05)
(1.206369107e-05 4.080936977e-16 -1.650749313e-05)
(1.220018032e-05 4.024558464e-16 -1.650750494e-05)
(1.234212499e-05 3.97251676e-16 -1.650751722e-05)
(1.248406967e-05 3.920475056e-16 -1.65075295e-05)
(1.262055891e-05 3.881443777e-16 -1.650754131e-05)
(1.274634921e-05 3.838075691e-16 -1.65075522e-05)
(1.285660557e-05 3.799044412e-16 -1.650756174e-05)
(1.294708982e-05 3.768686752e-16 -1.650756957e-05)
(1.301432592e-05 3.744834304e-16 -1.650757539e-05)
(1.305572913e-05 3.727487069e-16 -1.650757897e-05)
(1.306970967e-05 3.722639669e-16 -1.650758018e-05)
(1.305572913e-05 3.727487069e-16 -1.650757897e-05)
(1.301432592e-05 3.744834304e-16 -1.650757539e-05)
(1.294708982e-05 3.768686752e-16 -1.650756957e-05)
(1.285660557e-05 3.799044412e-16 -1.650756174e-05)
(1.274634921e-05 3.838075691e-16 -1.65075522e-05)
(1.262055891e-05 3.881443777e-16 -1.650754131e-05)
(1.248406967e-05 3.920475056e-16 -1.65075295e-05)
(1.234212499e-05 3.97251676e-16 -1.650751722e-05)
(1.220018032e-05 4.024558464e-16 -1.650750494e-05)
(1.206369107e-05 4.080936977e-16 -1.650749313e-05)
(1.193790077e-05 4.124305064e-16 -1.650748224e-05)
(1.182764441e-05 4.163336342e-16 -1.65074727e-05)
(1.173716016e-05 4.193694003e-16 -1.650746487e-05)
(1.166992406e-05 4.217546451e-16 -1.650745905e-05)
(1.162852086e-05 4.230556877e-16 -1.650745547e-05)
(1.782293117e-05 1.235144329e-16 -2.435624938e-05)
(1.783619605e-05 1.229485264e-16 -2.435625046e-05)
(1.787547982e-05 1.216474838e-16 -2.435625368e-05)
(1.79392741e-05 1.19262239e-16 -2.435625891e-05)
(1.802512646e-05 1.162264729e-16 -2.435626595e-05)
(1.812973879e-05 1.123233451e-16 -2.435627452e-05)
(1.824908987e-05 1.079865364e-16 -2.43562843e-05)
(1.837859223e-05 1.023486851e-16 -2.435629491e-05)
(1.851327075e-05 9.714451465e-17 -2.435630595e-05)
(1.864794927e-05 9.194034423e-17 -2.435631698e-05)
(1.877745162e-05 8.803721641e-17 -2.43563276e-05)
(1.88968027e-05 8.370040772e-17 -2.435633738e-05)
(1.900141503e-05 7.979727989e-17 -2.435634595e-05)
(1.908726739e-05 7.676151381e-17 -2.435635298e-05)
(1.915106167e-05 7.437626903e-17 -2.435635821e-05)
(1.919034544e-05 7.264154556e-17 -2.435636143e-05)
(1.920361032e-05 7.212266143e-17 -2.435636252e-05)
(1.919034544e-05 7.264154556e-17 -2.435636143e-05)
(1.915106167e-05 7.437626903e-17 -2.435635821e-05)
(1.908726739e-05 7.676151381e-17 -2.435635298e-05)
(1.900141503e-05 7.979727989e-17 -2.435634595e-05)
(1.88968027e-05 8.370040772e-17 -2.435633738e-05)
(1.877745162e-05 8.803721641e-17 -2.435632759e-05)
(1.864794927e-05 9.194034423e-17 -2.435631698e-05)
(1.851327075e-05 9.714451465e-17 -2.435630595e-05)
(1.837859223e-05 1.023486851e-16 -2.435629491e-05)
(1.824908987e-05 1.079865364e-16 -2.43562843e-05)
(1.812973879e-05 1.123233451e-16 -2.435627452e-05)
(1.802512646e-05 1.162264729e-16 -2.435626595e-05)
(1.79392741e-05 1.19262239e-16 -2.435625891e-05)
(1.787547982e-05 1.216474838e-16 -2.435625368e-05)
(1.783619605e-05 1.229485264e-16 -2.435625046e-05)
(2.404888579e-05 -1.742650493e-16 -3.169609683e-05)
(2.406109937e-05 -1.747733902e-16 -3.169609775e-05)
(2.409726973e-05 -1.762912732e-16 -3.169610046e-05)
(2.415600804e-05 -1.78676518e-16 -3.169610487e-05)
(2.423505622e-05 -1.817122841e-16 -3.169611081e-05)
(2.433137756e-05 -1.856154119e-16 -3.169611804e-05)
(2.444126955e-05 -1.899522206e-16 -3.169612629e-05)
(2.456050827e-05 -1.95156391e-16 -3.169613525e-05)
(2.468451293e-05 -2.003605615e-16 -3.169614456e-05)
(2.480851759e-05 -2.055647319e-16 -3.169615387e-05)
(2.492775631e-05 -2.099015406e-16 -3.169616282e-05)
(2.50376483e-05 -2.142383493e-16 -3.169617107e-05)
(2.513396965e-05 -2.181414771e-16 -3.169617831e-05)
(2.521301782e-05 -2.211772432e-16 -3.169618424e-05)
(2.527175613e-05 -2.23562488e-16 -3.169618865e-05)
(2.530792649e-05 -2.25080371e-16 -3.169619137e-05)
(2.532014007e-05 -2.256563266e-16 -3.169619229e-05)
(2.530792649e-05 -2.25080371e-16 -3.169619137e-05)
(2.527175613e-05 -2.23562488e-16 -3.169618865e-05)
(2.521301782e-05 -2.211772432e-16 -3.169618424e-05)
(2.513396965e-05 -2.181414771e-16 -3.169617831e-05)
(2.50376483e-05 -2.142383493e-16 -3.169617107e-05)
(2.492775631e-05 -2.099015406e-16 -3.169616282e-05)
(2.480851759e-05 -2.055647319e-16 -3.169615387e-05)
(2.468451293e-05 -2.003605615e-16 -3.169614456e-05)
(2.456050827e-05 -1.95156391e-16 -3.169613525e-05)
(2.444126955e-05 -1.899522206e-16 -3.169612629e-05)
(2.433137756e-05 -1.856154119e-16 -3.169611804e-05)
(2.423505622e-05 -1.817122841e-16 -3.169611081e-05)
(2.415600804e-05 -1.78676518e-16 -3.169610487e-05)
(2.409726973e-05 -1.762912732e-16 -3.169610046e-05)
(2.406109937e-05 -1.747733902e-16 -3.169609775e-05)
(3.029484037e-05 -4.667341519e-16 -3.832030803e-05)
(3.030562073e-05 -4.672911363e-16 -3.832030873e-05)
(3.033754664e-05 -4.688090194e-16 -3.832031083e-05)
(3.038939224e-05 -4.709774237e-16 -3.832031423e-05)
(3.045916442e-05 -4.740131898e-16 -3.83203188e-05)
(3.054418284e-05 -4.779163176e-16 -3.832032437e-05)
(3.064117943e-05 -4.822531263e-16 -3.832033073e-05)
(3.074642596e-05 -4.874572967e-16 -3.832033763e-05)
(3.085587916e-05 -4.926614672e-16 -3.83203448e-05)
(3.096533235e-05 -4.978656376e-16 -3.832035198e-05)
(3.107057888e-05 -5.022024463e-16 -3.832035888e-05)
(3.116757548e-05 -5.06539255e-16 -3.832036524e-05)
(3.125259389e-05 -5.104423828e-16 -3.832037081e-05)
(3.132236608e-05 -5.134781489e-16 -3.832037538e-05)
(3.137421167e-05 -5.160802341e-16 -3.832037878e-05)
(3.140613758e-05 -5.175981171e-16 -3.832038087e-05)
(3.141691794e-05 -5.181246729e-16 -3.832038158e-05)
(3.140613758e-05 -5.175981171e-16 -3.832038087e-05)
(3.137421167e-05 -5.160802341e-16 -3.832037878e-05)
(3.132236608e-05 -5.134781489e-16 -3.832037538e-05)
(3.125259389e-05 -5.104423828e-16 -3.832037081e-05)
(3.116757548e-05 -5.06539255e-16 -3.832036524e-05)
(3.107057888e-05 -5.022024463e-16 -3.832035888e-05)
(3.096533235e-05 -4.978656376e-16 -3.832035198e-05)
(3.085587916e-05 -4.926614672e-16 -3.83203448e-05)
(3.074642596e-05 -4.874572967e-16 -3.832033763e-05)
(3.064117943e-05 -4.822531263e-16 -3.832033073e-05)
(3.054418284e-05 -4.779163176e-16 -3.832032437e-05)
(3.045916442e-05 -4.740131898e-16 -3.83203188e-05)
(3.038939224e-05 -4.709774237e-16 -3.832031423e-05)
(3.033754664e-05 -4.688090194e-16 -3.832031083e-05)
(3.030562073e-05 -4.672911363e-16 -3.832030873e-05)
(3.656368483e-05 -7.491522246e-16 -4.399297939e-05)
(3.657259494e-05 -7.496173821e-16 -4.399297986e-05)
(3.659898211e-05 -7.511352651e-16 -4.399298125e-05)
(3.664183316e-05 -7.537373503e-16 -4.399298352e-05)
(3.669950076e-05 -7.567731164e-16 -4.399298657e-05)
(3.676976956e-05 -7.606762442e-16 -4.399299028e-05)
(3.684993848e-05 -7.650130529e-16 -4.399299452e-05)
(3.693692608e-05 -7.693498616e-16 -4.399299912e-05)
(3.702739054e-05 -7.74554032e-16 -4.39930039e-05)
(3.7117855e-05 -7.797582025e-16 -4.399300868e-05)
(3.72048426e-05 -7.849623729e-16 -4.399301328e-05)
(3.728501152e-05 -7.892991816e-16 -4.399301752e-05)
(3.735528032e-05 -7.932023094e-16 -4.399302123e-05)
(3.741294792e-05 -7.962380755e-16 -4.399302428e-05)
(3.745579897e-05 -7.984064798e-16 -4.399302655e-05)
(3.748218614e-05 -7.999243629e-16 -4.399302794e-05)
(3.749109625e-05 -8.005418799e-16 -4.399302841e-05)
(3.748218614e-05 -7.999243629e-16 -4.399302794e-05)
(3.745579897e-05 -7.984064798e-16 -4.399302655e-05)
(3.741294792e-05 -7.962380755e-16 -4.399302428e-05)
(3.735528032e-05 -7.932023094e-16 -4.399302123e-05)
(3.728501152e-05 -7.892991816e-16 -4.399301752e-05)
(3.72048426e-05 -7.849623729e-16 -4.399301328e-05)
(3.7117855e-05 -7.797582025e-16 -4.399300868e-05)
(3.702739054e-05 -7.74554032e-16 -4.39930039e-05)
(3.693692608e-05 -7.693498616e-16 -4.399299912e-05)
(3.684993848e-05 -7.650130529e-16 -4.399299452e-05)
(3.676976956e-05 -7.606762442e-16 -4.399299028e-05)
(3.669950076e-05 -7.567731164e-16 -4.399298657e-05)
(3.664183316e-05 -7.537373503e-16 -4.399298352e-05)
(3.659898211e-05 -7.511352651e-16 -4.399298125e-05)
(3.657259494e-05 -7.496173821e-16 -4.399297986e-05)
(4.285859237e-05 -1.014619057e-15 -4.844481004e-05)
(4.286513438e-05 -1.015246914e-15 -4.844481027e-05)
(4.288450848e-05 -1.016547957e-15 -4.844481098e-05)
(4.291597074e-05 -1.019150042e-15 -4.844481211e-05)
(4.295831168e-05 -1.022185808e-15 -4.844481365e-05)
(4.300990473e-05 -1.026088936e-15 -4.844481551e-05)
(4.306876668e-05 -1.030425745e-15 -4.844481764e-05)
(4.313263506e-05 -1.034762553e-15 -4.844481995e-05)
(4.319905625e-05 -1.039966724e-15 -4.844482235e-05)
(4.326547743e-05 -1.045170894e-15 -4.844482476e-05)
(4.332934582e-05 -1.050375065e-15 -4.844482707e-05)
(4.338820776e-05 -1.054711873e-15 -4.84448292e-05)
(4.343980081e-05 -1.058615001e-15 -4.844483106e-05)
(4.348214175e-05 -1.061650767e-15 -4.844483259e-05)
(4.351360402e-05 -1.063819172e-15 -4.844483373e-05)
(4.353297811e-05 -1.065553895e-15 -4.844483443e-05)
(4.353952013e-05 -1.066007596e-15 -4.844483467e-05)
(4.353297811e-05 -1.065553895e-15 -4.844483443e-05)
(4.351360402e-05 -1.063819172e-15 -4.844483373e-05)
(4.348214175e-05 -1.061650767e-15 -4.844483259e-05)
(4.343980081e-05 -1.058615001e-15 -4.844483106e-05)
(4.338820776e-05 -1.054711873e-15 -4.84448292e-05)
(4.332934582e-05 -1.050375065e-15 -4.844482707e-05)
(4.326547743e-05 -1.045170894e-15 -4.844482476e-05)
(4.319905625e-05 -1.039966724e-15 -4.844482235e-05)
(4.313263506e-05 -1.034762553e-15 -4.844481995e-05)
(4.306876668e-05 -1.030425745e-15 -4.844481764e-05)
(4.300990473e-05 -1.026088936e-15 -4.844481551e-05)
(4.295831168e-05 -1.022185808e-15 -4.844481365e-05)
(4.291597074e-05 -1.019150042e-15 -4.844481211e-05)
(4.288450848e-05 -1.016547957e-15 -4.844481098e-05)
(4.286513438e-05 -1.015246914e-15 -4.844481027e-05)
(4.918281681e-05 -1.253777784e-15 -5.137090905e-05)
(4.918643016e-05 -1.254313493e-15 -5.13709091e-05)
(4.919713106e-05 -1.255722956e-15 -5.137090923e-05)
(4.921450862e-05 -1.258108201e-15 -5.137090946e-05)
(4.923789481e-05 -1.261143967e-15 -5.137090976e-05)
(4.926639121e-05 -1.265047095e-15 -5.137091013e-05)
(4.929890244e-05 -1.269383904e-15 -5.137091055e-05)
(4.933417889e-05 -1.274154393e-15 -5.137091101e-05)
(4.937086532e-05 -1.279358564e-15 -5.137091148e-05)
(4.940755175e-05 -1.284562734e-15 -5.137091196e-05)
(4.944282819e-05 -1.289333224e-15 -5.137091241e-05)
(4.947533943e-05 -1.293670032e-15 -5.137091283e-05)
(4.950383583e-05 -1.29757316e-15 -5.13709132e-05)
(4.952722201e-05 -1.300608926e-15 -5.13709135e-05)
(4.954459957e-05 -1.302994171e-15 -5.137091373e-05)
(4.955530047e-05 -1.304620474e-15 -5.137091387e-05)
(4.955891383e-05 -1.305165184e-15 -5.137091391e-05)
(4.955530047e-05 -1.304620474e-15 -5.137091387e-05)
(4.954459957e-05 -1.302994171e-15 -5.137091373e-05)
(4.952722201e-05 -1.300608926e-15 -5.13709135e-05)
(4.950383583e-05 -1.29757316e-15 -5.13709132e-05)
(4.947533943e-05 -1.293670032e-15 -5.137091283e-05)
(4.944282819e-05 -1.289333224e-15 -5.137091241e-05)
(4.940755175e-05 -1.284562734e-15 -5.137091196e-05)
(4.937086532e-05 -1.279358564e-15 -5.137091148e-05)
(4.933417889e-05 -1.274154393e-15 -5.137091101e-05)
(4.929890244e-05 -1.269383904e-15 -5.137091055e-05)
(4.926639121e-05 -1.265047095e-15 -5.137091013e-05)
(4.923789481e-05 -1.261143967e-15 -5.137090976e-05)
(4.921450862e-05 -1.258108201e-15 -5.137090946e-05)
(4.919713106e-05 -1.255722956e-15 -5.137090923e-05)
(4.918643016e-05 -1.254313493e-15 -5.13709091e-05)
(5.553945772e-05 -1.454565297e-15 -5.243092025e-05)
(5.553952148e-05 -1.455107736e-15 -5.243092021e-05)
(5.55397103e-05 -1.456734039e-15 -5.243092011e-05)
(5.554001694e-05 -1.458902443e-15 -5.243091994e-05)
(5.554042961e-05 -1.461938209e-15 -5.243091972e-05)
(5.554093245e-05 -1.465841337e-15 -5.243091944e-05)
(5.554150614e-05 -1.470178146e-15 -5.243091913e-05)
(5.554212862e-05 -1.474514955e-15 -5.243091879e-05)
(5.554277598e-05 -1.479719125e-15 -5.243091844e-05)
(5.554342334e-05 -1.484923295e-15 -5.243091808e-05)
(5.554404582e-05 -1.490127466e-15 -5.243091774e-05)
(5.55446195e-05 -1.494464275e-15 -5.243091743e-05)
(5.554512234e-05 -1.498367402e-15 -5.243091716e-05)
(5.554553501e-05 -1.501403168e-15 -5.243091693e-05)
(5.554584165e-05 -1.504005254e-15 -5.243091676e-05)
(5.554603048e-05 -1.505414716e-15 -5.243091666e-05)
(5.554609424e-05 -1.505951512e-15 -5.243091662e-05)
(5.554603048e-05 -1.505414716e-15 -5.243091666e-05)
(5.554584165e-05 -1.504005254e-15 -5.243091676e-05)
(5.554553501e-05 -1.501403168e-15 -5.243091693e-05)
(5.554512234e-05 -1.498367402e-15 -5.243091716e-05)
(5.55446195e-05 -1.494464275e-15 -5.243091743e-05)
(5.554404582e-05 -1.490127466e-15 -5.243091774e-05)
(5.554342334e-05 -1.484923295e-15 -5.243091808e-05)
(5.554277598e-05 -1.479719125e-15 -5.243091844e-05)
(5.554212862e-05 -1.474514955e-15 -5.243091879e-05)
(5.554150614e-05 -1.470178146e-15 -5.243091913e-05)
(5.554093245e-05 -1.465841337e-15 -5.243091944e-05)
(5.554042961e-05 -1.461938209e-15 -5.243091972e-05)
(5.554001694e-05 -1.458902443e-15 -5.243091994e-05)
(5.55397103e-05 -1.456734039e-15 -5.243092011e-05)
(5.553952148e-05 -1.455107736e-15 -5.243092021e-05)
(6.193120447e-05 -1.602094486e-15 -5.125173149e-05)
(6.192704439e-05 -1.602667651e-15 -5.125173157e-05)
(6.191472433e-05 -1.604185534e-15 -5.125173181e-05)
(6.189471738e-05 -1.60678762e-15 -5.12517322e-05)
(6.186779264e-05 -1.609823386e-15 -5.125173272e-05)
(6.183498445e-05 -1.613726514e-15 -5.125173336e-05)
(6.179755395e-05 -1.618063322e-15 -5.125173409e-05)
(6.175693983e-05 -1.622833812e-15 -5.125173488e-05)
(6.171470239e-05 -1.628037982e-15 -5.12517357e-05)
(6.167246494e-05 -1.633242153e-15 -5.125173653e-05)
(6.163185083e-05 -1.638012642e-15 -5.125173732e-05)
(6.159442032e-05 -1.642349451e-15 -5.125173805e-05)
(6.156161214e-05 -1.646252579e-15 -5.125173868e-05)
(6.15346874e-05 -1.649288345e-15 -5.125173921e-05)
(6.151468044e-05 -1.651456749e-15 -5.12517396e-05)
(6.150236039e-05 -1.652974632e-15 -5.125173984e-05)
(6.14982003e-05 -1.65347987e-15 -5.125173992e-05)
(6.150236039e-05 -1.652974632e-15 -5.125173984e-05)
(6.151468044e-05 -1.651456749e-15 -5.12517396e-05)
(6.15346874e-05 -1.649288345e-15 -5.125173921e-05)
(6.156161214e-05 -1.646252579e-15 -5.125173868e-05)
(6.159442032e-05 -1.642349451e-15 -5.125173805e-05)
(6.163185083e-05 -1.638012642e-15 -5.125173732e-05)
(6.167246494e-05 -1.633242153e-15 -5.125173653e-05)
(6.171470239e-05 -1.628037982e-15 -5.12517357e-05)
(6.175693983e-05 -1.622833812e-15 -5.125173488e-05)
(6.179755395e-05 -1.618063322e-15 -5.125173409e-05)
(6.183498445e-05 -1.613726514e-15 -5.125173336e-05)
(6.186779264e-05 -1.609823386e-15 -5.125173272e-05)
(6.189471738e-05 -1.60678762e-15 -5.12517322e-05)
(6.191472433e-05 -1.604185534e-15 -5.125173181e-05)
(6.192704439e-05 -1.602667651e-15 -5.125173157e-05)
(6.836006449e-05 -1.678650789e-15 -4.743294883e-05)
(6.835096494e-05 -1.679103905e-15 -4.743294934e-05)
(6.832401673e-05 -1.680730208e-15 -4.743295085e-05)
(6.828025461e-05 -1.683115453e-15 -4.74329533e-05)
(6.822136091e-05 -1.686151219e-15 -4.743295661e-05)
(6.814959808e-05 -1.690054346e-15 -4.743296063e-05)
(6.806772464e-05 -1.694391155e-15 -4.743296522e-05)
(6.797888756e-05 -1.699161645e-15 -4.74329702e-05)
(6.788649968e-05 -1.704365815e-15 -4.743297538e-05)
(6.77941118e-05 -1.709569986e-15 -4.743298056e-05)
(6.770527471e-05 -1.714340475e-15 -4.743298554e-05)
(6.762340128e-05 -1.718677284e-15 -4.743299013e-05)
(6.755163845e-05 -1.722580412e-15 -4.743299415e-05)
(6.749274475e-05 -1.725616178e-15 -4.743299745e-05)
(6.744898262e-05 -1.728001423e-15 -4.743299991e-05)
(6.742203442e-05 -1.729410885e-15 -4.743300142e-05)
(6.741293487e-05 -1.730035977e-15 -4.743300193e-05)
(6.742203442e-05 -1.729410885e-15 -4.743300142e-05)
(6.744898262e-05 -1.728001423e-15 -4.743299991e-05)
(6.749274475e-05 -1.725616178e-15 -4.743299745e-05)
(6.755163845e-05 -1.722580412e-15 -4.743299415e-05)
(6.762340128e-05 -1.718677284e-15 -4.743299013e-05)
(6.770527471e-05 -1.714340475e-15 -4.743298554e-05)
(6.77941118e-05 -1.709569986e-15 -4.743298056e-05)
(6.788649968e-05 -1.704365815e-15 -4.743297538e-05)
(6.797888756e-05 -1.699161645e-15 -4.74329702e-05)
(6.806772464e-05 -1.694391155e-15 -4.743296522e-05)
(6.814959808e-05 -1.690054346e-15 -4.743296063e-05)
(6.822136091e-05 -1.686151219e-15 -4.743295661e-05)
(6.828025461e-05 -1.683115453e-15 -4.74329533e-05)
(6.832401673e-05 -1.680730208e-15 -4.743295085e-05)
(6.835096494e-05 -1.679103905e-15 -4.743294934e-05)
(7.482708121e-05 -1.663765641e-15 -4.055526769e-05)
(7.481230233e-05 -1.664250335e-15 -4.055526908e-05)
(7.476853483e-05 -1.665985058e-15 -4.055527322e-05)
(7.469745927e-05 -1.667936622e-15 -4.055527993e-05)
(7.4601808e-05 -1.670972388e-15 -4.055528896e-05)
(7.448525554e-05 -1.674875516e-15 -4.055529996e-05)
(7.43522821e-05 -1.679212325e-15 -4.055531252e-05)
(7.420799876e-05 -1.684416495e-15 -4.055532614e-05)
(7.405794845e-05 -1.689620666e-15 -4.05553403e-05)
(7.390789815e-05 -1.694824836e-15 -4.055535447e-05)
(7.376361481e-05 -1.699161645e-15 -4.055536809e-05)
(7.363064137e-05 -1.703498453e-15 -4.055538065e-05)
(7.351408891e-05 -1.707401581e-15 -4.055539165e-05)
(7.341843764e-05 -1.710437347e-15 -4.055540068e-05)
(7.334736208e-05 -1.713256273e-15 -4.055540739e-05)
(7.330359458e-05 -1.714557316e-15 -4.055541152e-05)
(7.32888157e-05 -1.71515178e-15 -4.055541292e-05)
(7.330359458e-05 -1.714557316e-15 -4.055541152e-05)
(7.334736208e-05 -1.713256273e-15 -4.055540739e-05)
(7.341843764e-05 -1.710437347e-15 -4.055540068e-05)
(7.351408891e-05 -1.707401581e-15 -4.055539165e-05)
(7.363064137e-05 -1.703498453e-15 -4.055538065e-05)
(7.376361481e-05 -1.699161645e-15 -4.055536809e-05)
(7.390789815e-05 -1.694824836e-15 -4.055535447e-05)
(7.405794845e-05 -1.689620666e-15 -4.05553403e-05)
(7.420799876e-05 -1.684416495e-15 -4.055532614e-05)
(7.43522821e-05 -1.679212325e-15 -4.055531252e-05)
(7.448525554e-05 -1.674875516e-15 -4.055529996e-05)
(7.4601808e-05 -1.670972388e-15 -4.055528896e-05)
(7.469745927e-05 -1.667936622e-15 -4.055527993e-05)
(7.476853483e-05 -1.665985058e-15 -4.055527322e-05)
(7.481230233e-05 -1.664250335e-15 -4.055526908e-05)
(8.133205917e-05 -1.534478481e-15 -3.019176413e-05)
(8.13108589e-05 -1.535013436e-15 -3.019176703e-05)
(8.124807457e-05 -1.536531319e-15 -3.019177562e-05)
(8.114611692e-05 -1.538699723e-15 -3.019178958e-05)
(8.100890549e-05 -1.541735489e-15 -3.019180835e-05)
(8.084171139e-05 -1.545638617e-15 -3.019183123e-05)
(8.065096144e-05 -1.549975426e-15 -3.019185733e-05)
(8.044398746e-05 -1.555179596e-15 -3.019188565e-05)
(8.022874081e-05 -1.560383767e-15 -3.019191511e-05)
(8.001349416e-05 -1.565587937e-15 -3.019194456e-05)
(7.980652018e-05 -1.569924746e-15 -3.019197288e-05)
(7.961577023e-05 -1.574261554e-15 -3.019199899e-05)
(7.944857612e-05 -1.578164682e-15 -3.019202186e-05)
(7.93113647e-05 -1.581200448e-15 -3.019204064e-05)
(7.920940705e-05 -1.583802534e-15 -3.019205459e-05)
(7.914662272e-05 -1.585320417e-15 -3.019206318e-05)
(7.912542245e-05 -1.585867379e-15 -3.019206608e-05)
(7.914662272e-05 -1.585320417e-15 -3.019206318e-05)
(7.920940705e-05 -1.583802534e-15 -3.019205459e-05)
(7.93113647e-05 -1.581200448e-15 -3.019204064e-05)
(7.944857612e-05 -1.578164682e-15 -3.019202186e-05)
(7.961577023e-05 -1.574261554e-15 -3.019199899e-05)
(7.980652018e-05 -1.569924746e-15 -3.019197288e-05)
(8.001349416e-05 -1.565587937e-15 -3.019194456e-05)
(8.022874081e-05 -1.560383767e-15 -3.019191511e-05)
(8.044398746e-05 -1.555179596e-15 -3.019188565e-05)
(8.065096144e-05 -1.549975426e-15 -3.019185733e-05)
(8.084171139e-05 -1.545638617e-15 -3.019183123e-05)
(8.100890549e-05 -1.541735489e-15 -3.019180835e-05)
(8.114611692e-05 -1.538699723e-15 -3.019178958e-05)
(8.124807457e-05 -1.536531319e-15 -3.019177562e-05)
(8.13108589e-05 -1.535013436e-15 -3.019176703e-05)
(8.787329816e-05 -1.265792234e-15 -1.592204781e-05)
(8.784495934e-05 -1.266348137e-15 -1.592205302e-05)
(8.776103427e-05 -1.267866021e-15 -1.592206843e-05)
(8.762474545e-05 -1.270251265e-15 -1.592209346e-05)
(8.744133219e-05 -1.273287031e-15 -1.592212714e-05)
(8.721784049e-05 -1.277190159e-15 -1.592216818e-05)
(8.696286122e-05 -1.281526968e-15 -1.592221501e-05)
(8.668619498e-05 -1.286297457e-15 -1.592226581e-05)
(8.639847048e-05 -1.291501628e-15 -1.592231865e-05)
(8.611074598e-05 -1.296705798e-15 -1.592237149e-05)
(8.583407973e-05 -1.301476288e-15 -1.59224223e-05)
(8.557910046e-05 -1.305813097e-15 -1.592246912e-05)
(8.535560876e-05 -1.309716224e-15 -1.592251016e-05)
(8.51721955e-05 -1.31275199e-15 -1.592254385e-05)
(8.503590668e-05 -1.315137235e-15 -1.592256887e-05)
(8.495198161e-05 -1.316655118e-15 -1.592258429e-05)
(8.492364279e-05 -1.317186504e-15 -1.592258949e-05)
(8.495198161e-05 -1.316655118e-15 -1.592258429e-05)
(8.503590668e-05 -1.315137235e-15 -1.592256887e-05)
(8.51721955e-05 -1.31275199e-15 -1.592254385e-05)
(8.535560876e-05 -1.309716224e-15 -1.592251016e-05)
(8.557910046e-05 -1.305813097e-15 -1.592246912e-05)
(8.583407973e-05 -1.301476288e-15 -1.59224223e-05)
(8.611074598e-05 -1.296705798e-15 -1.592237149e-05)
(8.639847048e-05 -1.291501628e-15 -1.592231865e-05)
(8.668619498e-05 -1.286297457e-15 -1.592226581e-05)
(8.696286122e-05 -1.281526968e-15 -1.592221501e-05)
(8.721784049e-05 -1.277190159e-15 -1.592216818e-05)
(8.744133219e-05 -1.273287031e-15 -1.592212714e-05)
(8.762474545e-05 -1.270251265e-15 -1.592209346e-05)
(8.776103427e-05 -1.267866021e-15 -1.592206843e-05)
(8.784495934e-05 -1.266348137e-15 -1.592205302e-05)
(9.444736081e-05 -8.313173357e-16 2.650895117e-06)
(9.441122258e-05 -8.319083269e-16 2.650886639e-06)
(9.430419961e-05 -8.331009493e-16 2.650861532e-06)
(9.41304013e-05 -8.361367154e-16 2.650820759e-06)
(9.389650896e-05 -8.391724815e-16 2.650765888e-06)
(9.361150776e-05 -8.430756093e-16 2.650699026e-06)
(9.328635296e-05 -8.47412418e-16 2.650622745e-06)
(9.293354249e-05 -8.517492267e-16 2.650539976e-06)
(9.256663031e-05 -8.569533971e-16 2.650453898e-06)
(9.219971812e-05 -8.621575676e-16 2.650367821e-06)
(9.184690766e-05 -8.67361738e-16 2.650285051e-06)
(9.152175286e-05 -8.716985467e-16 2.65020877e-06)
(9.123675166e-05 -8.756016745e-16 2.650141909e-06)
(9.100285931e-05 -8.786374406e-16 2.650087038e-06)
(9.082906101e-05 -8.808058449e-16 2.650046265e-06)
(9.072203804e-05 -8.822153078e-16 2.650021157e-06)
(9.06858998e-05 -8.827204063e-16 2.650012679e-06)
(9.072203804e-05 -8.822153078e-16 2.650021157e-06)
(9.082906101e-05 -8.808058449e-16 2.650046265e-06)
(9.100285931e-05 -8.786374406e-16 2.650087038e-06)
(9.123675166e-05 -8.756016745e-16 2.650141909e-06)
(9.152175286e-05 -8.716985467e-16 2.65020877e-06)
(9.184690766e-05 -8.67361738e-16 2.650285051e-06)
(9.219971812e-05 -8.621575676e-16 2.650367821e-06)
(9.256663031e-05 -8.569533971e-16 2.650453898e-06)
(9.293354249e-05 -8.517492267e-16 2.650539976e-06)
(9.328635296e-05 -8.47412418e-16 2.650622745e-06)
(9.361150776e-05 -8.430756093e-16 2.650699026e-06)
(9.389650896e-05 -8.391724815e-16 2.650765888e-06)
(9.41304013e-05 -8.361367154e-16 2.650820759e-06)
(9.430419961e-05 -8.331009493e-16 2.650861532e-06)
(9.441122258e-05 -8.319083269e-16 2.650886639e-06)
(0.0001010488739 -2.041283083e-16 2.588144044e-05)
(0.0001010043671 -2.045889499e-16 2.588142757e-05)
(0.0001008725607 -2.059984128e-16 2.588138945e-05)
(0.0001006585158 -2.08600498e-16 2.588132755e-05)
(0.0001003704607 -2.116362641e-16 2.588124425e-05)
(0.0001000194615 -2.155393919e-16 2.588114275e-05)
(9.96190102e-05 -2.198762006e-16 2.588102694e-05)
(9.918449902e-05 -2.246466901e-16 2.588090129e-05)
(9.873262057e-05 -2.298508606e-16 2.588077061e-05)
(9.828074212e-05 -2.35055031e-16 2.588063994e-05)
(9.784623094e-05 -2.398255206e-16 2.588051428e-05)
(9.744577969e-05 -2.441623292e-16 2.588039848e-05)
(9.709478044e-05 -2.480654571e-16 2.588029698e-05)
(9.680672538e-05 -2.511012231e-16 2.588021367e-05)
(9.659268041e-05 -2.537033084e-16 2.588015178e-05)
(9.646087401e-05 -2.551127712e-16 2.588011366e-05)
(9.64163672e-05 -2.555446826e-16 2.588010079e-05)
(9.646087401e-05 -2.551127712e-16 2.588011366e-05)
(9.659268041e-05 -2.537033084e-16 2.588015178e-05)
(9.680672538e-05 -2.511012231e-16 2.588021367e-05)
(9.709478044e-05 -2.480654571e-16 2.588029698e-05)
(9.744577969e-05 -2.441623292e-16 2.588039848e-05)
(9.784623094e-05 -2.398255206e-16 2.588051428e-05)
(9.828074212e-05 -2.35055031e-16 2.588063994e-05)
(9.873262057e-05 -2.298508606e-16 2.588077061e-05)
(9.918449902e-05 -2.246466901e-16 2.588090129e-05)
(9.96190102e-05 -2.198762006e-16 2.588102694e-05)
(0.0001000194615 -2.155393919e-16 2.588114275e-05)
(0.0001003704607 -2.116362641e-16 2.588124425e-05)
(0.0001006585158 -2.08600498e-16 2.588132755e-05)
(0.0001008725607 -2.059984128e-16 2.588138945e-05)
(0.0001010043671 -2.045889499e-16 2.588142757e-05)
(0.0001076703843 6.421242436e-16 5.4059996e-05)
(0.0001076170702 6.416308457e-16 5.405997753e-05)
(0.0001074591808 6.401129626e-16 5.40599228e-05)
(0.0001072027788 6.375108774e-16 5.405983394e-05)
(0.000106857721 6.344751113e-16 5.405971435e-05)
(0.0001064372631 6.305719835e-16 5.405956863e-05)
(0.0001059575672 6.262351748e-16 5.405940238e-05)
(0.0001054370713 6.218983661e-16 5.405922199e-05)
(0.0001048957714 6.166941957e-16 5.405903439e-05)
(0.0001043544715 6.114900253e-16 5.405884679e-05)
(0.0001038339756 6.062858549e-16 5.405866639e-05)
(0.0001033542797 6.019490462e-16 5.405850014e-05)
(0.0001029338218 5.980459183e-16 5.405835442e-05)
(0.000102588764 5.950101523e-16 5.405823483e-05)
(0.000102332362 5.92408067e-16 5.405814597e-05)
(0.0001021744726 5.911070244e-16 5.405809125e-05)
(0.0001021211584 5.906893331e-16 5.405807277e-05)
(0.0001021744726 5.911070244e-16 5.405809125e-05)
(0.000102332362 5.92408067e-16 5.405814597e-05)
(0.000102588764 5.950101523e-16 5.405823483e-05)
(0.0001029338218 5.980459183e-16 5.405835442e-05)
(0.0001033542797 6.019490462e-16 5.405850014e-05)
(0.0001038339756 6.062858549e-16 5.405866639e-05)