/*--------------------------------*- C++ -*----------------------------------*\
| =========                 |                                                 |
| \\      /  F ield         | OpenFOAM: The Open Source CFD Toolbox           |
|  \\    /   O peration     | Version:  2312                                  |
|   \\  /    A nd           | Website:  www.openfoam.com                      |
|    \\/     M anipulation  |                                                 |
\*---------------------------------------------------------------------------*/
FoamFile
{
    version     2.0;
    format      ascii;
    arch        "LSB;label=32;scalar=64";
    class       surfaceVectorField;
    location    "0.08/beam";
    object      Q;
}
// * * * * * * * * * * * * * * * * * * * * * * * * * * * * * * * * * * * * * //

dimensions      [1 1 -2 0 0 0 0];

oriented        oriented;

internalField   nonuniform List<vector> 
59
(
(0.02102073886 -1.440581283e-16 -5.039735206e-06)
(0.02102075127 -1.48863749e-16 -5.01413881e-06)
(0.02102077197 -1.563839815e-16 -4.959913321e-06)
(0.02102080094 -1.658874497e-16 -4.860143205e-06)
(0.02102083817 -1.763556642e-16 -4.692011319e-06)
(0.02102088367 -1.864904323e-16 -4.427664921e-06)
(0.02102093742 -1.947260074e-16 -4.035327664e-06)
(0.0210209994 -1.992477683e-16 -3.480650758e-06)
(0.02102106958 -1.980194887e-16 -2.728289033e-06)
(0.02102114793 -1.888237423e-16 -1.743677406e-06)
(0.02102123441 -1.693101942e-16 -4.949704208e-07)
(0.02102132894 -1.370581819e-16 1.044907484e-06)
(0.02102143147 -8.966029538e-17 2.896169357e-06)
(0.02102154189 -2.48204151e-17 5.070114951e-06)
(0.02102166011 5.953066647e-17 7.567219508e-06)
(0.02102178601 1.651019248e-16 1.037546886e-05)
(0.0210219195 2.930917841e-16 1.346904933e-05)
(0.02102206046 4.440231668e-16 1.680749248e-05)
(0.02102220881 6.175654278e-16 2.033535375e-05)
(0.02102236449 8.1234662e-16 2.398246737e-05)
(0.02102252747 1.025759996e-15 2.766476765e-05)
(0.02102269779 1.253769339e-15 3.128559795e-05)
(0.02102287549 1.490691339e-15 3.473696668e-05)
(0.02102306077 1.729152251e-15 3.790316232e-05)
(0.02102325372 1.959628064e-15 4.065811424e-05)
(0.02102345461 2.170712407e-15 4.28714195e-05)
(0.02102366358 2.348611721e-15 4.440307985e-05)
(0.0210238809 2.477481894e-15 4.510552395e-05)
(0.02102410662 2.539150108e-15 4.481705965e-05)
(0.02102434086 2.513475055e-15 4.335710065e-05)
(0.02102458337 2.37851079e-15 4.051876965e-05)
(0.02102483384 2.110884772e-15 3.60566255e-05)
(0.02102509135 1.686698472e-15 2.968180874e-05)
(0.02102535461 1.081938876e-15 2.104476572e-05)
(0.02102562123 2.744697137e-16 9.741007858e-06)
(0.02102588788 -7.555064298e-16 -4.704757016e-06)
(0.02102614933 -2.022035982e-15 -2.280923006e-05)
(0.02102639846 -3.532955787e-15 -4.513628334e-05)
(0.02102662535 -5.284930818e-15 -7.222912851e-05)
(0.02102681735 -7.263261051e-15 -0.0001046004374)
(0.0210269587 -9.435712399e-15 -0.0001426176836)
(0.02102703138 -1.175322251e-14 -0.0001864846018)
(0.02102701623 -1.414362774e-14 -0.0002360900906)
(0.02102689539 -1.651433706e-14 -0.0002910102776)
(0.02102665576 -1.874791456e-14 -0.0003503608305)
(0.0210262929 -2.070796036e-14 -0.0004128726151)
(0.02102581587 -2.223894834e-14 -0.0004768135199)
(0.02102525 -2.317586248e-14 -0.0005401946387)
(0.02102463874 -2.334991662e-14 -0.0006008221191)
(0.02102403989 -2.260030609e-14 -0.0006566448836)
(0.02102351895 -2.078479304e-14 -0.0007059268797)
(0.02102313582 -1.778824451e-14 -0.0007476344827)
(0.02102293102 -1.353305446e-14 -0.0007815827758)
(0.0210229119 -7.975760505e-15 -0.0008086219442)
(0.02102304699 -1.109987356e-15 -0.0008304935084)
(0.02102327163 7.055884304e-15 -0.0008495610654)
(0.02102350674 1.650469111e-14 -0.0008682290162)
(0.0210236868 2.724501564e-14 -0.0008883281776)
(0.02102378362 3.930639056e-14 -0.0009105672699)
)
;

boundaryField
{
    left
    {
        type            calculated;
        value           uniform (-0.02102073472 -6.811647542e-12 5.047091721e-06);
    }
    right
    {
        type            calculated;
        value           uniform (0.02102380974 -6.75827075e-12 -0.0009345839884);
    }
    beam
    {
        type            empty;
        value           nonuniform List<vector> 0();
    }
}


// ************************************************************************* //
