/*--------------------------------*- C++ -*----------------------------------*\
| =========                 |                                                 |
| \\      /  F ield         | OpenFOAM: The Open Source CFD Toolbox           |
|  \\    /   O peration     | Version:  2312                                  |
|   \\  /    A nd           | Website:  www.openfoam.com                      |
|    \\/     M anipulation  |                                                 |
\*---------------------------------------------------------------------------*/
FoamFile
{
    version     2.0;
    format      ascii;
    arch        "LSB;label=32;scalar=64";
    class       volVectorField;
    location    "0.08/beam";
    object      Theta;
}
// * * * * * * * * * * * * * * * * * * * * * * * * * * * * * * * * * * * * * //

dimensions      [0 0 0 0 0 0 0];

internalField   nonuniform List<vector> 
60
(
(7.640479127e-16 0.0001462470188 -4.937588718e-15)
(7.640482585e-16 0.0001450026196 -4.901188133e-15)
(7.640416374e-16 0.0001386609198 -4.821685359e-15)
(7.6403299e-16 0.0001290402675 -4.684322507e-15)
(7.640244097e-16 0.0001142943014 -4.468018775e-15)
(7.640196827e-16 9.453869224e-05 -4.145858605e-15)
(7.640228266e-16 6.853836111e-05 -3.684952058e-15)
(7.640372965e-16 3.575757934e-05 -3.050604545e-15)
(7.640665009e-16 -4.787125128e-06 -2.203516105e-15)
(7.641128304e-16 -5.375054515e-05 -1.105432862e-15)
(7.641783372e-16 -0.0001118252976 2.787287587e-16)
(7.64264145e-16 -0.0001794189074 1.982468905e-15)
(7.643709484e-16 -0.0002567410737 4.030858335e-15)
(7.644990667e-16 -0.0003436465115 6.438648169e-15)
(7.646486859e-16 -0.0004396287457 9.206672781e-15)
(7.648199123e-16 -0.0005437319418 1.23185268e-14)
(7.650126067e-16 -0.0006545236096 1.573642969e-14)
(7.652268217e-16 -0.0007700455761 1.939627964e-14)
(7.654597006e-16 -0.0008877946566 2.320914254e-14)
(7.657079121e-16 -0.001004702943 2.70503324e-14)
(7.659641358e-16 -0.001117134808 3.076114868e-14)
(7.662155957e-16 -0.001220887641 3.414675502e-14)
(7.664441439e-16 -0.001311194798 3.697240486e-14)
(7.666256875e-16 -0.001382751557 3.896692756e-14)
(7.667312031e-16 -0.001429685796 3.981966778e-14)
(7.667338978e-16 -0.001445570933 3.919046013e-14)
(7.666167485e-16 -0.001423397279 3.670423121e-14)
(7.663903334e-16 -0.001355532222 3.197825657e-14)
(7.661131111e-16 -0.001233664352 2.460064302e-14)
(7.659209522e-16 -0.001048737599 1.420032863e-14)
(7.660119984e-16 -0.0007908864763 4.301188662e-16)
(7.668707631e-16 -0.0004493916915 -1.709700332e-14)
(7.689944906e-16 -1.26812591e-05 -3.860667372e-14)
(7.731080808e-16 0.0005315895213 -6.421785898e-14)
(7.800942964e-16 0.001196342723 -9.394173195e-14)
(7.90957563e-16 0.001994728095 -1.275858233e-13)
(8.067534201e-16 0.002939585075 -1.64742797e-13)
(8.285199104e-16 0.004042693594 -2.047239365e-13)
(8.572043746e-16 0.005313809206 -2.465237808e-13)
(8.936529774e-16 0.006759508966 -2.887672235e-13)
(9.386410759e-16 0.008381905663 -3.296730669e-13)
(9.92987708e-16 0.01017733761 -3.670189052e-13)
(1.057616064e-15 0.01213517174 -3.981245148e-13)
(1.133443924e-15 0.0142369103 -4.198504029e-13)
(1.220750052e-15 0.01645578924 -4.286232278e-13)
(1.317619557e-15 0.01875708272 -4.204922018e-13)
(1.417121605e-15 0.02109924372 -3.912244702e-13)
(1.502988078e-15 0.0234359888 -3.36448972e-13)
(1.544479433e-15 0.02571921303 -2.518589806e-13)
(1.491816657e-15 0.02790259589 -1.33487249e-13)
(1.275679535e-15 0.02994534351 2.192655375e-14)
(8.147184771e-16 0.03181571156 2.164503064e-13)
(3.672670002e-17 0.03349322129 4.503171927e-13)
(-1.084555118e-15 0.03496951685 7.210777892e-13)
(-2.478415992e-15 0.0362462454 1.022476989e-12)
(-3.924753131e-15 0.03733161743 1.342984629e-12)
(-5.021422793e-15 0.03823296254 1.663872049e-12)
(-5.198328848e-15 0.03895138774 1.956776921e-12)
(-3.791992257e-15 0.03947143475 2.180681749e-12)
(-1.510301551e-16 0.0397614919 2.278345652e-12)
)
;

boundaryField
{
    left
    {
        type            momentBeamRotationNR;
        value           uniform (7.640479127e-16 0.0001462470188 -4.937588718e-15);
        momentSeries    
{
        file            "$FOAM_CASE/constant/beam/timeVsMoment";
        outOfBounds     clamp;
}
        moment          uniform (0 0 0);
    }
    right
    {
        type            momentBeamRotationNR;
        value           uniform (-1.510301551e-16 0.0397614919 2.278345652e-12);
        momentSeries    
{
        file            "$FOAM_CASE/constant/beam/timeVsMoment";
        outOfBounds     clamp;
}
        moment          uniform (0 0 0);
    }
    beam
    {
        type            empty;
    }
}


// ************************************************************************* //
