/*--------------------------------*- C++ -*----------------------------------*\
| =========                 |                                                 |
| \\      /  F ield         | OpenFOAM: The Open Source CFD Toolbox           |
|  \\    /   O peration     | Version:  2312                                  |
|   \\  /    A nd           | Website:  www.openfoam.com                      |
|    \\/     M anipulation  |                                                 |
\*---------------------------------------------------------------------------*/
FoamFile
{
    version     2.0;
    format      ascii;
    arch        "LSB;label=32;scalar=64";
    class       volVectorField;
    location    "0.08/beam";
    object      W;
}
// * * * * * * * * * * * * * * * * * * * * * * * * * * * * * * * * * * * * * //

dimensions      [0 1 0 0 0 0 0];

internalField   nonuniform List<vector> 
60
(
(3.085518133e-06 8.494425561e-16 -4.186105773e-06)
(9.256572481e-06 5.483521425e-16 -1.248005469e-05)
(1.54276775e-05 2.475678934e-16 -2.053497975e-05)
(2.159886399e-05 -5.193079904e-17 -2.817763214e-05)
(2.777016187e-05 -3.479905769e-16 -3.521465697e-05)
(3.394159644e-05 -6.368682479e-16 -4.142603264e-05)
(4.011318464e-05 -9.128258566e-16 -4.655997516e-05)
(4.628492785e-05 -1.167800797e-15 -5.032966954e-05)
(5.245680278e-05 -1.391142171e-15 -5.241215342e-05)
(5.862874917e-05 -1.569374637e-15 -5.244968345e-05)
(6.48006556e-05 -1.686199719e-15 -5.005378795e-05)
(7.097234376e-05 -1.722487048e-15 -4.48121628e-05)
(7.714355315e-05 -1.656430373e-15 -3.62985178e-05)
(8.331392847e-05 -1.463915486e-15 -2.408531241e-05)
(8.948301249e-05 -1.119063251e-15 -7.759324892e-06)
(9.565024813e-05 -5.949744909e-16 1.306023269e-05)
(0.000101814993 1.353015e-16 3.870130854e-05)
(0.0001079765498 1.097512077e-15 6.941676024e-05)
(0.0001141342144 2.314801075e-15 0.0001053606834)
(0.0001202873432 3.805980514e-15 0.0001465638227)
(0.0001264354371 5.583511297e-15 0.0001929085029)
(0.0001325782391 7.651338292e-15 0.0002441035006)
(0.0001387154904 1.000235826e-14 0.0002996559921)
(0.0001448484163 1.261634322e-14 0.0003588590475)
(0.0001509777236 1.54566081e-14 0.0004207498824)
(0.000157105032 1.846765752e-14 0.0004840954785)
(0.0001632325081 2.157261292e-14 0.0005473659574)
(0.0001693627607 2.467067759e-14 0.0006087073281)
(0.0001754986149 2.763509202e-14 0.0006659116824)
(0.0001816427143 3.031166139e-14 0.0007163885046)
(0.0001877969123 3.251893847e-14 0.0007571252622)
(0.000193961357 3.404642954e-14 0.0007846581153)
(0.0002001332176 3.465547978e-14 0.0007950236575)
(0.0002063049236 3.408525062e-14 0.0007837367557)
(0.0002124618404 3.205535231e-14 0.0007457429926)
(0.0002185792942 2.827393278e-14 0.0006754228097)
(0.0002246188577 2.244550517e-14 0.000566566541)
(0.0002305240587 1.428451924e-14 0.0004124368903)
(0.0002362154427 3.527910773e-15 0.00020579926)
(0.0002415857864 -1.00455533e-14 -6.091872433e-05)
(0.0002464953863 -2.659825001e-14 -0.0003955088383)
(0.0002507693124 -4.620983398e-14 -0.0008056976185)
(0.0002541962071 -6.885771645e-14 -0.001298928797)
(0.0002565318216 -9.439233029e-14 -0.001881963089)
(0.0002575055179 -1.225194898e-13 -0.002560598799)
(0.0002568338113 -1.527812563e-13 -0.00333922894)
(0.0002542361906 -1.845470139e-13 -0.00422060199)
(0.0002494573192 -2.170087499e-13 -0.005205474933)
(0.0002422867409 -2.491890306e-13 -0.006292561167)
(0.0002325801628 -2.799600159e-13 -0.007478437492)
(0.0002202706644 -3.080756359e-13 -0.008757797102)
(0.0002053758021 -3.322213837e-13 -0.01012368579)
(0.0001879903346 -3.51074904e-13 -0.01156803396)
(0.0001682749882 -3.633897902e-13 -0.01308209884)
(0.0001464358922 -3.680864966e-13 -0.01465702369)
(0.0001227087737 -3.643728858e-13 -0.01628414149)
(9.734596597e-05 -3.518728067e-13 -0.01795515851)
(7.061829199e-05 -3.307976895e-13 -0.01966194241)
(4.282762723e-05 -3.021420767e-13 -0.02139607242)
(1.433394349e-05 -2.679497726e-13 -0.02314805571)
)
;

boundaryField
{
    left
    {
        type            fixedValue;
        value           uniform (0 0 0);
    }
    right
    {
        type            fixedValue;
        value           uniform (-4.078319815e-08 -2.507962325e-13 -0.02402733323);
    }
    beam
    {
        type            empty;
    }
}


// ************************************************************************* //
