/*--------------------------------*- C++ -*----------------------------------*\
| =========                 |                                                 |
| \\      /  F ield         | foam-extend: Open Source CFD                    |
|  \\    /   O peration     | Version:     4.1                                |
|   \\  /    A nd           | Web:         http://www.foam-extend.org         |
|    \\/     M anipulation  |                                                 |
\*---------------------------------------------------------------------------*/
FoamFile
{
    version     2.0;
    format      ascii;
    class       volTensorField;
    location    "0";
    object      refRM;
}
// * * * * * * * * * * * * * * * * * * * * * * * * * * * * * * * * * * * * * //

dimensions      [0 0 0 0 0 0 0];

internalField   nonuniform List<tensor> 
20
(
(0.999807 -0.0196337 0 0.0196337 0.999807 0 0 0 1)
(0.998266 -0.0588708 0 0.0588708 0.998266 0 0 0 1)
(0.995185 -0.0980173 0 0.0980173 0.995185 0 0 0 1)
(0.990569 -0.137013 0 0.137013 0.990569 0 0 0 1)
(0.984426 -0.175797 0 0.175797 0.984426 0 0 0 1)
(0.976766 -0.214309 0 0.214309 0.976766 0 0 0 1)
(0.967599 -0.252491 0 0.252491 0.967599 0 0 0 1)
(0.95694 -0.290284 0 0.290284 0.95694 0 0 0 1)
(0.944806 -0.32763 0 0.32763 0.944806 0 0 0 1)
(0.931215 -0.36447 0 0.36447 0.931215 0 0 0 1)
(0.916188 -0.400749 0 0.400749 0.916188 0 0 0 1)
(0.899748 -0.436409 0 0.436409 0.899748 0 0 0 1)
(0.881921 -0.471397 0 0.471397 0.881921 0 0 0 1)
(0.862734 -0.505658 0 0.505658 0.862734 0 0 0 1)
(0.842217 -0.539139 0 0.539139 0.842217 0 0 0 1)
(0.820401 -0.571788 0 0.571788 0.820401 0 0 0 1)
(0.797321 -0.603556 0 0.603556 0.797321 0 0 0 1)
(0.773011 -0.634393 0 0.634393 0.773011 0 0 0 1)
(0.747508 -0.664252 0 0.664252 0.747508 0 0 0 1)
(0.720854 -0.693087 0 0.693087 0.720854 0 0 0 1)
)
;

boundaryField
{
    left
    {
        type            calculated;
        value           uniform (1 -0 0 0 1 0 0 0 1);
    }
    right
    {
        type            calculated;
        value           uniform (0.707107 -0.707107 0 0.707107 0.707107 0 0 0 1);
    }
    beam
    {
        type            empty;
    }
}


// ************************************************************************* //
