/*--------------------------------*- C++ -*----------------------------------*\
| =========                 |                                                 |
| \\      /  F ield         | foam-extend: Open Source CFD                    |
|  \\    /   O peration     | Version:     4.1                                |
|   \\  /    A nd           | Web:         http://www.foam-extend.org         |
|    \\/     M anipulation  |                                                 |
\*---------------------------------------------------------------------------*/
FoamFile
{
    version     2.0;
    format      ascii;
    class       volVectorField;
    location    "0";
    object      refW;
}
// * * * * * * * * * * * * * * * * * * * * * * * * * * * * * * * * * * * * * //

dimensions      [0 1 0 0 0 0 0];

internalField   nonuniform List<vector> 
20
(
(-0.000126162 0.0192759 0)
(-0.00340586 0.173439 0)
(-0.0157631 0.481529 0)
(-0.043234 0.943071 0)
(-0.0918314 1.55735 0)
(-0.167534 2.32341 0)
(-0.276281 3.24008 0)
(-0.423962 4.30596 0)
(-0.616403 5.51939 0)
(-0.859362 6.8785 0)
(-1.15852 8.3812 0)
(-1.51947 10.0252 0)
(-1.94771 11.8079 0)
(-2.44864 13.7266 0)
(-3.02754 15.7783 0)
(-3.68957 17.9599 0)
(-4.43976 20.2679 0)
(-5.283 22.6989 0)
(-6.22408 25.2492 0)
(-7.26758 27.9146 0)
)
;

boundaryField
{
    left
    {
        type            calculated;
        value           uniform (0 0 0);
    }
    right
    {
        type            calculated;
        value           uniform (-7.82914 29.2893 0);
    }
    beam
    {
        type            empty;
    }
}


// ************************************************************************* //
