/*--------------------------------*- C++ -*----------------------------------*\
| =========                 |                                                 |
| \\      /  F ield         | OpenFOAM: The Open Source CFD Toolbox           |
|  \\    /   O peration     | Version:  v2012                                 |
|   \\  /    A nd           | Website:  www.openfoam.com                      |
|    \\/     M anipulation  |                                                 |
\*---------------------------------------------------------------------------*/
FoamFile
{
    version     2.0;
    format      ascii;
    class       pointVectorField;
    location    "0";
    object      pointW;
}
// * * * * * * * * * * * * * * * * * * * * * * * * * * * * * * * * * * * * * //

dimensions      [0 1 0 0 0 0 0];


internalField   nonuniform List<vector> 
3232
(
(0 0 0)
(0 0 0)
(0 0 0)
(0 0 0)
(0 0 0)
(0 0 0)
(0 0 0)
(0 0 0)
(1.72971e-35 0 0)
(0 0 0)
(0 0 0)
(0 0 0)
(0 0 0)
(0 0 0)
(0 0 0)
(0 0 0)
(0 -1.2326e-32 0)
(0 0 0)
(0 0 0)
(0 0 0)
(0 0 0)
(0 0 0)
(0 0 0)
(0 0 0)
(-1.72971e-35 0 0)
(0 0 0)
(0 0 0)
(0 0 0)
(0 0 0)
(0 0 0)
(0 0 0)
(0 0 0)
(-8.07452e-06 0.00308423 0)
(0.00086641 0.00308767 0)
(0.0017073 0.00309097 0)
(0.00248226 0.00309401 0)
(0.00316151 0.00309668 0)
(0.00371896 0.00309887 0)
(0.00413319 0.0031005 0)
(0.00438827 0.0031015 0)
(0.0044744 0.00310184 0)
(0.00438827 0.0031015 0)
(0.00413319 0.0031005 0)
(0.00371896 0.00309887 0)
(0.00316151 0.00309668 0)
(0.00248226 0.00309401 0)
(0.0017073 0.00309097 0)
(0.00086641 0.00308767 0)
(-8.07452e-06 0.00308423 0)
(-0.000882559 0.0030808 0)
(-0.00172345 0.0030775 0)
(-0.00249841 0.00307446 0)
(-0.00317766 0.00307179 0)
(-0.00373511 0.0030696 0)
(-0.00414934 0.00306797 0)
(-0.00440442 0.00306697 0)
(-0.00449055 0.00306663 0)
(-0.00440442 0.00306697 0)
(-0.00414934 0.00306797 0)
(-0.00373511 0.0030696 0)
(-0.00317766 0.00307179 0)
(-0.00249841 0.00307446 0)
(-0.00172345 0.0030775 0)
(-0.000882559 0.0030808 0)
(-6.45961e-05 0.0123368 0)
(0.00168432 0.0123505 0)
(0.00336605 0.0123638 0)
(0.00491592 0.0123759 0)
(0.00627439 0.0123866 0)
(0.00738927 0.0123954 0)
(0.0082177 0.0124019 0)
(0.00872785 0.0124059 0)
(0.0089001 0.0124072 0)
(0.00872785 0.0124059 0)
(0.0082177 0.0124019 0)
(0.00738927 0.0123954 0)
(0.00627439 0.0123866 0)
(0.00491592 0.0123759 0)
(0.00336605 0.0123638 0)
(0.00168432 0.0123505 0)
(-6.45961e-05 0.0123368 0)
(-0.00181352 0.0123231 0)
(-0.00349524 0.0123099 0)
(-0.00504512 0.0122977 0)
(-0.00640358 0.012287 0)
(-0.00751846 0.0122783 0)
(-0.0083469 0.0122718 0)
(-0.00885704 0.0122678 0)
(-0.00902929 0.0122664 0)
(-0.00885704 0.0122678 0)
(-0.0083469 0.0122718 0)
(-0.00751846 0.0122783 0)
(-0.00640358 0.012287 0)
(-0.00504512 0.0122977 0)
(-0.00349524 0.0123099 0)
(-0.00181352 0.0123231 0)
(-0.000218006 0.0277569 0)
(0.00240523 0.0277878 0)
(0.00492767 0.0278175 0)
(0.00725236 0.0278449 0)
(0.00928995 0.0278689 0)
(0.0109622 0.0278886 0)
(0.0122048 0.0279032 0)
(0.0129699 0.0279123 0)
(0.0132283 0.0279153 0)
(0.0129699 0.0279123 0)
(0.0122048 0.0279032 0)
(0.0109622 0.0278886 0)
(0.00928995 0.0278689 0)
(0.00725236 0.0278449 0)
(0.00492767 0.0278175 0)
(0.00240523 0.0277878 0)
(-0.000218006 0.0277569 0)
(-0.00284124 0.027726 0)
(-0.00536369 0.0276963 0)
(-0.00768837 0.0276689 0)
(-0.00972596 0.0276449 0)
(-0.0113982 0.0276252 0)
(-0.0126408 0.0276105 0)
(-0.0134059 0.0276015 0)
(-0.0136643 0.0275985 0)
(-0.0134059 0.0276015 0)
(-0.0126408 0.0276105 0)
(-0.0113982 0.0276252 0)
(-0.00972596 0.0276449 0)
(-0.00768837 0.0276689 0)
(-0.00536369 0.0276963 0)
(-0.00284124 0.027726 0)
(-0.000516745 0.0493439 0)
(0.00298065 0.0493988 0)
(0.00634367 0.0494517 0)
(0.00944304 0.0495004 0)
(0.0121596 0.049543 0)
(0.0143891 0.049578 0)
(0.0160458 0.0496041 0)
(0.0170659 0.0496201 0)
(0.0174104 0.0496255 0)
(0.0170659 0.0496201 0)
(0.0160458 0.0496041 0)
(0.0143891 0.049578 0)
(0.0121596 0.049543 0)
(0.00944304 0.0495004 0)
(0.00634367 0.0494517 0)
(0.00298065 0.0493988 0)
(-0.000516745 0.0493439 0)
(-0.00401414 0.0492889 0)
(-0.00737716 0.0492361 0)
(-0.0104765 0.0491874 0)
(-0.0131931 0.0491448 0)
(-0.0154226 0.0491097 0)
(-0.0170793 0.0490837 0)
(-0.0180994 0.0490677 0)
(-0.0184439 0.0490623 0)
(-0.0180994 0.0490677 0)
(-0.0170793 0.0490837 0)
(-0.0154226 0.0491097 0)
(-0.0131931 0.0491448 0)
(-0.0104765 0.0491874 0)
(-0.00737716 0.0492361 0)
(-0.00401414 0.0492889 0)
(-0.00100924 0.0770964 0)
(0.0033621 0.0771822 0)
(0.0075655 0.0772647 0)
(0.0114393 0.0773408 0)
(0.0148348 0.0774075 0)
(0.0176213 0.0774622 0)
(0.019692 0.0775029 0)
(0.0209671 0.0775279 0)
(0.0213976 0.0775364 0)
(0.0209671 0.0775279 0)
(0.019692 0.0775029 0)
(0.0176213 0.0774622 0)
(0.0148348 0.0774075 0)
(0.0114393 0.0773408 0)
(0.0075655 0.0772647 0)
(0.0033621 0.0771822 0)
(-0.00100924 0.0770964 0)
(-0.00538059 0.0770105 0)
(-0.00958398 0.076928 0)
(-0.0134578 0.0768519 0)
(-0.0168532 0.0767852 0)
(-0.0196398 0.0767305 0)
(-0.0217105 0.0766898 0)
(-0.0229856 0.0766648 0)
(-0.0234161 0.0766563 0)
(-0.0229856 0.0766648 0)
(-0.0217105 0.0766898 0)
(-0.0196398 0.0767305 0)
(-0.0168532 0.0767852 0)
(-0.0134578 0.0768519 0)
(-0.00958398 0.076928 0)
(-0.00538059 0.0770105 0)
(-0.00174391 0.111013 0)
(0.00350111 0.111136 0)
(0.00854461 0.111255 0)
(0.0131927 0.111365 0)
(0.0172668 0.111461 0)
(0.0206103 0.111539 0)
(0.0230948 0.111598 0)
(0.0246247 0.111634 0)
(0.0251413 0.111646 0)
(0.0246247 0.111634 0)
(0.0230948 0.111598 0)
(0.0206103 0.111539 0)
(0.0172668 0.111461 0)
(0.0131927 0.111365 0)
(0.00854461 0.111255 0)
(0.00350111 0.111136 0)
(-0.00174391 0.111013 0)
(-0.00698893 0.110889 0)
(-0.0120324 0.11077 0)
(-0.0166805 0.110661 0)
(-0.0207546 0.110565 0)
(-0.0240981 0.110486 0)
(-0.0265826 0.110427 0)
(-0.0281125 0.110391 0)
(-0.0286291 0.110379 0)
(-0.0281125 0.110391 0)
(-0.0265826 0.110427 0)
(-0.0240981 0.110486 0)
(-0.0207546 0.110565 0)
(-0.0166805 0.110661 0)
(-0.0120324 0.11077 0)
(-0.00698893 0.110889 0)
(-0.00276916 0.15109 0)
(0.00334922 0.151259 0)
(0.00923252 0.15142 0)
(0.0146546 0.15157 0)
(0.019407 0.1517 0)
(0.0233072 0.151807 0)
(0.0262054 0.151887 0)
(0.0279901 0.151936 0)
(0.0285927 0.151953 0)
(0.0279901 0.151936 0)
(0.0262054 0.151887 0)
(0.0233072 0.151807 0)
(0.019407 0.1517 0)
(0.0146546 0.15157 0)
(0.00923252 0.15142 0)
(0.00334922 0.151259 0)
(-0.00276916 0.15109 0)
(-0.00888754 0.150922 0)
(-0.0147708 0.15076 0)
(-0.0201929 0.150611 0)
(-0.0249453 0.150481 0)
(-0.0288456 0.150373 0)
(-0.0317437 0.150294 0)
(-0.0335284 0.150245 0)
(-0.034131 0.150228 0)
(-0.0335284 0.150245 0)
(-0.0317437 0.150294 0)
(-0.0288456 0.150373 0)
(-0.0249453 0.150481 0)
(-0.0201929 0.150611 0)
(-0.0147708 0.15076 0)
(-0.00888754 0.150922 0)
(-0.00413337 0.197327 0)
(0.00285799 0.197547 0)
(0.00958073 0.197758 0)
(0.0157764 0.197953 0)
(0.0212069 0.198124 0)
(0.0256637 0.198264 0)
(0.0289754 0.198368 0)
(0.0310147 0.198432 0)
(0.0317032 0.198454 0)
(0.0310147 0.198432 0)
(0.0289754 0.198368 0)
(0.0256637 0.198264 0)
(0.0212069 0.198124 0)
(0.0157764 0.197953 0)
(0.00958073 0.197758 0)
(0.00285799 0.197547 0)
(-0.00413337 0.197327 0)
(-0.0111247 0.197108 0)
(-0.0178475 0.196897 0)
(-0.0240431 0.196702 0)
(-0.0294736 0.196531 0)
(-0.0339304 0.196391 0)
(-0.0372421 0.196287 0)
(-0.0392814 0.196223 0)
(-0.03997 0.196201 0)
(-0.0392814 0.196223 0)
(-0.0372421 0.196287 0)
(-0.0339304 0.196391 0)
(-0.0294736 0.196531 0)
(-0.0240431 0.196702 0)
(-0.0178475 0.196897 0)
(-0.0111247 0.197108 0)
(-0.00588487 0.24972 0)
(0.00197902 0.249998 0)
(0.00954076 0.250266 0)
(0.0165097 0.250512 0)
(0.0226179 0.250728 0)
(0.0276309 0.250905 0)
(0.0313559 0.251037 0)
(0.0336497 0.251118 0)
(0.0344242 0.251145 0)
(0.0336497 0.251118 0)
(0.0313559 0.251037 0)
(0.0276309 0.250905 0)
(0.0226179 0.250728 0)
(0.0165097 0.250512 0)
(0.00954076 0.250266 0)
(0.00197902 0.249998 0)
(-0.00588487 0.24972 0)
(-0.0137488 0.249442 0)
(-0.0213105 0.249175 0)
(-0.0282794 0.248928 0)
(-0.0343877 0.248712 0)
(-0.0394006 0.248535 0)
(-0.0431256 0.248403 0)
(-0.0454194 0.248322 0)
(-0.0461939 0.248295 0)
(-0.0454194 0.248322 0)
(-0.0431256 0.248403 0)
(-0.0394006 0.248535 0)
(-0.0343877 0.248712 0)
(-0.0282794 0.248928 0)
(-0.0213105 0.249175 0)
(-0.0137488 0.249442 0)
(-0.00807206 0.308267 0)
(0.00066389 0.30861 0)
(0.00906419 0.30894 0)
(0.0168059 0.309244 0)
(0.0235915 0.309511 0)
(0.0291604 0.309729 0)
(0.0332985 0.309892 0)
(0.0358467 0.309992 0)
(0.0367071 0.310026 0)
(0.0358467 0.309992 0)
(0.0332985 0.309892 0)
(0.0291604 0.309729 0)
(0.0235915 0.309511 0)
(0.0168059 0.309244 0)
(0.00906419 0.30894 0)
(0.00066389 0.30861 0)
(-0.00807206 0.308267 0)
(-0.016808 0.307923 0)
(-0.0252083 0.307593 0)
(-0.03295 0.307289 0)
(-0.0397356 0.307022 0)
(-0.0453045 0.306804 0)
(-0.0494426 0.306641 0)
(-0.0519908 0.306541 0)
(-0.0528512 0.306507 0)
(-0.0519908 0.306541 0)
(-0.0494426 0.306641 0)
(-0.0453045 0.306804 0)
(-0.0397356 0.307022 0)
(-0.03295 0.307289 0)
(-0.0252083 0.307593 0)
(-0.016808 0.307923 0)
(-0.0107432 0.372962 0)
(-0.00113575 0.373378 0)
(0.00810259 0.373777 0)
(0.0166166 0.374145 0)
(0.0240792 0.374468 0)
(0.0302036 0.374732 0)
(0.0347546 0.374929 0)
(0.037557 0.37505 0)
(0.0385032 0.375091 0)
(0.037557 0.37505 0)
(0.0347546 0.374929 0)
(0.0302036 0.374732 0)
(0.0240792 0.374468 0)
(0.0166166 0.374145 0)
(0.00810259 0.373777 0)
(-0.00113575 0.373378 0)
(-0.0107432 0.372962 0)
(-0.0203507 0.372547 0)
(-0.029589 0.372148 0)
(-0.0381031 0.37178 0)
(-0.0455656 0.371457 0)
(-0.0516901 0.371193 0)
(-0.056241 0.370996 0)
(-0.0590434 0.370875 0)
(-0.0599896 0.370834 0)
(-0.0590434 0.370875 0)
(-0.056241 0.370996 0)
(-0.0516901 0.371193 0)
(-0.0455656 0.371457 0)
(-0.0381031 0.37178 0)
(-0.029589 0.372148 0)
(-0.0203507 0.372547 0)
(-0.0139466 0.443804 0)
(-0.00346824 0.444298 0)
(0.00660756 0.444773 0)
(0.0158934 0.445211 0)
(0.0240325 0.445595 0)
(0.0307121 0.44591 0)
(0.0356756 0.446144 0)
(0.038732 0.446288 0)
(0.039764 0.446337 0)
(0.038732 0.446288 0)
(0.0356756 0.446144 0)
(0.0307121 0.44591 0)
(0.0240325 0.445595 0)
(0.0158934 0.445211 0)
(0.00660756 0.444773 0)
(-0.00346824 0.444298 0)
(-0.0139466 0.443804 0)
(-0.024425 0.44331 0)
(-0.0345008 0.442835 0)
(-0.0437867 0.442397 0)
(-0.0519258 0.442013 0)
(-0.0586054 0.441698 0)
(-0.0635688 0.441464 0)
(-0.0666253 0.44132 0)
(-0.0676573 0.441271 0)
(-0.0666253 0.44132 0)
(-0.0635688 0.441464 0)
(-0.0586054 0.441698 0)
(-0.0519258 0.442013 0)
(-0.0437867 0.442397 0)
(-0.0345008 0.442835 0)
(-0.024425 0.44331 0)
(-0.0177307 0.520788 0)
(-0.00638197 0.521368 0)
(0.0045307 0.521926 0)
(0.0145878 0.52244 0)
(0.0234029 0.52289 0)
(0.0306373 0.52326 0)
(0.036013 0.523534 0)
(0.0393233 0.523704 0)
(0.040441 0.523761 0)
(0.0393233 0.523704 0)
(0.036013 0.523534 0)
(0.0306373 0.52326 0)
(0.0234029 0.52289 0)
(0.0145878 0.52244 0)
(0.0045307 0.521926 0)
(-0.00638197 0.521368 0)
(-0.0177307 0.520788 0)
(-0.0290794 0.520208 0)
(-0.0399921 0.519651 0)
(-0.0500492 0.519137 0)
(-0.0588642 0.518687 0)
(-0.0660986 0.518317 0)
(-0.0714744 0.518042 0)
(-0.0747847 0.517873 0)
(-0.0759024 0.517816 0)
(-0.0747847 0.517873 0)
(-0.0714744 0.518042 0)
(-0.0660986 0.518317 0)
(-0.0588642 0.518687 0)
(-0.0500492 0.519137 0)
(-0.0399921 0.519651 0)
(-0.0290794 0.520208 0)
(-0.0221433 0.603907 0)
(-0.00992505 0.60458 0)
(0.00182379 0.605226 0)
(0.0126515 0.605822 0)
(0.022142 0.606345 0)
(0.0299308 0.606773 0)
(0.0357184 0.607092 0)
(0.0392823 0.607288 0)
(0.0404857 0.607354 0)
(0.0392823 0.607288 0)
(0.0357184 0.607092 0)
(0.0299308 0.606773 0)
(0.022142 0.606345 0)
(0.0126515 0.605822 0)
(0.00182379 0.605226 0)
(-0.00992505 0.60458 0)
(-0.0221433 0.603907 0)
(-0.0343616 0.603235 0)
(-0.0461105 0.602588 0)
(-0.0569382 0.601993 0)
(-0.0664287 0.60147 0)
(-0.0742175 0.601042 0)
(-0.0800051 0.600723 0)
(-0.083569 0.600527 0)
(-0.0847724 0.600461 0)
(-0.083569 0.600527 0)
(-0.0800051 0.600723 0)
(-0.0742175 0.601042 0)
(-0.0664287 0.60147 0)
(-0.0569382 0.601993 0)
(-0.0461105 0.602588 0)
(-0.0343616 0.603235 0)
(-0.0272329 0.693158 0)
(-0.0141458 0.693929 0)
(-0.0015615 0.694672 0)
(0.0100362 0.695356 0)
(0.0202015 0.695955 0)
(0.0285441 0.696447 0)
(0.0347433 0.696813 0)
(0.0385607 0.697038 0)
(0.0398496 0.697114 0)
(0.0385607 0.697038 0)
(0.0347433 0.696813 0)
(0.0285441 0.696447 0)
(0.0202015 0.695955 0)
(0.0100362 0.695356 0)
(-0.0015615 0.694672 0)
(-0.0141458 0.693929 0)
(-0.0272329 0.693158 0)
(-0.04032 0.692386 0)
(-0.0529043 0.691644 0)
(-0.064502 0.69096 0)
(-0.0746674 0.69036 0)
(-0.08301 0.689868 0)
(-0.0892091 0.689503 0)
(-0.0930265 0.689278 0)
(-0.0943154 0.689202 0)
(-0.0930265 0.689278 0)
(-0.0892091 0.689503 0)
(-0.08301 0.689868 0)
(-0.0746674 0.69036 0)
(-0.064502 0.69096 0)
(-0.0529043 0.691644 0)
(-0.04032 0.692386 0)
(-0.0330475 0.788534 0)
(-0.0190924 0.789412 0)
(-0.0056734 0.790256 0)
(0.00669351 0.791034 0)
(0.0175331 0.791716 0)
(0.026429 0.792276 0)
(0.0330394 0.792692 0)
(0.03711 0.792948 0)
(0.0384844 0.793034 0)
(0.03711 0.792948 0)
(0.0330394 0.792692 0)
(0.026429 0.792276 0)
(0.0175331 0.791716 0)
(0.00669351 0.791034 0)
(-0.0056734 0.790256 0)
(-0.0190924 0.789412 0)
(-0.0330475 0.788534 0)
(-0.0470026 0.787656 0)
(-0.0604216 0.786811 0)
(-0.0727885 0.786033 0)
(-0.0836281 0.785351 0)
(-0.092524 0.784792 0)
(-0.0991344 0.784376 0)
(-0.103205 0.78412 0)
(-0.104579 0.784033 0)
(-0.103205 0.78412 0)
(-0.0991344 0.784376 0)
(-0.092524 0.784792 0)
(-0.0836281 0.785351 0)
(-0.0727885 0.786033 0)
(-0.0604216 0.786811 0)
(-0.0470026 0.787656 0)
(-0.0396352 0.89003 0)
(-0.0248129 0.891021 0)
(-0.0105601 0.891974 0)
(0.00257527 0.892852 0)
(0.0140884 0.893621 0)
(0.0235371 0.894253 0)
(0.0305582 0.894723 0)
(0.0348818 0.895012 0)
(0.0363416 0.895109 0)
(0.0348818 0.895012 0)
(0.0305582 0.894723 0)
(0.0235371 0.894253 0)
(0.0140884 0.893621 0)
(0.00257527 0.892852 0)
(-0.0105601 0.891974 0)
(-0.0248129 0.891021 0)
(-0.0396352 0.89003 0)
(-0.0544575 0.889039 0)
(-0.0687103 0.888086 0)
(-0.0818457 0.887207 0)
(-0.0933589 0.886438 0)
(-0.102808 0.885806 0)
(-0.109829 0.885337 0)
(-0.114152 0.885048 0)
(-0.115612 0.88495 0)
(-0.114152 0.885048 0)
(-0.109829 0.885337 0)
(-0.102808 0.885806 0)
(-0.0933589 0.886438 0)
(-0.0818457 0.887207 0)
(-0.0687103 0.888086 0)
(-0.0544575 0.889039 0)
(-0.0470441 0.997639 0)
(-0.0313556 0.99875 0)
(-0.0162698 0.999818 0)
(-0.00236674 1.0008 0)
(0.00981928 1.00167 0)
(0.0198202 1.00237 0)
(0.0272516 1.0029 0)
(0.0318278 1.00322 0)
(0.0333729 1.00333 0)
(0.0318278 1.00322 0)
(0.0272516 1.0029 0)
(0.0198202 1.00237 0)
(0.00981928 1.00167 0)
(-0.00236674 1.0008 0)
(-0.0162698 0.999818 0)
(-0.0313556 0.99875 0)
(-0.0470441 0.997639 0)
(-0.0627326 0.996528 0)
(-0.0778184 0.99546 0)
(-0.0917215 0.994476 0)
(-0.103907 0.993613 0)
(-0.113908 0.992905 0)
(-0.12134 0.992379 0)
(-0.125916 0.992055 0)
(-0.127461 0.991945 0)
(-0.125916 0.992055 0)
(-0.12134 0.992379 0)
(-0.113908 0.992905 0)
(-0.103907 0.993613 0)
(-0.0917215 0.994476 0)
(-0.0778184 0.99546 0)
(-0.0627326 0.996528 0)
(-0.0553221 1.11136 0)
(-0.0387683 1.11259 0)
(-0.0228505 1.11378 0)
(-0.00818065 1.11488 0)
(0.00467746 1.11584 0)
(0.01523 1.11663 0)
(0.0230713 1.11722 0)
(0.0278999 1.11758 0)
(0.0295302 1.1177 0)
(0.0278999 1.11758 0)
(0.0230713 1.11722 0)
(0.01523 1.11663 0)
(0.00467746 1.11584 0)
(-0.00818065 1.11488 0)
(-0.0228505 1.11378 0)
(-0.0387683 1.11259 0)
(-0.0553221 1.11136 0)
(-0.071876 1.11012 0)
(-0.0877938 1.10893 0)
(-0.102464 1.10783 0)
(-0.115322 1.10687 0)
(-0.125874 1.10608 0)
(-0.133716 1.1055 0)
(-0.138544 1.10513 0)
(-0.140174 1.10501 0)
(-0.138544 1.10513 0)
(-0.133716 1.1055 0)
(-0.125874 1.10608 0)
(-0.115322 1.10687 0)
(-0.102464 1.10783 0)
(-0.0877938 1.10893 0)
(-0.071876 1.11012 0)
(-0.0645172 1.23117 0)
(-0.0470992 1.23254 0)
(-0.0303503 1.23386 0)
(-0.0149146 1.23508 0)
(-0.00138514 1.23614 0)
(0.00971829 1.23701 0)
(0.017969 1.23766 0)
(0.0230497 1.23806 0)
(0.0247651 1.2382 0)
(0.0230497 1.23806 0)
(0.017969 1.23766 0)
(0.00971829 1.23701 0)
(-0.00138514 1.23614 0)
(-0.0149146 1.23508 0)
(-0.0303503 1.23386 0)
(-0.0470992 1.23254 0)
(-0.0645172 1.23117 0)
(-0.0819353 1.2298 0)
(-0.0986842 1.22848 0)
(-0.11412 1.22727 0)
(-0.127649 1.2262 0)
(-0.138753 1.22533 0)
(-0.147003 1.22468 0)
(-0.152084 1.22428 0)
(-0.1538 1.22415 0)
(-0.152084 1.22428 0)
(-0.147003 1.22468 0)
(-0.138753 1.22533 0)
(-0.127649 1.2262 0)
(-0.11412 1.22727 0)
(-0.0986842 1.22848 0)
(-0.0819353 1.2298 0)
(-0.0746773 1.35708 0)
(-0.0563961 1.35859 0)
(-0.0388172 1.36004 0)
(-0.0226165 1.36138 0)
(-0.0084166 1.36256 0)
(0.00323708 1.36352 0)
(0.0118966 1.36424 0)
(0.0172291 1.36468 0)
(0.0190296 1.36483 0)
(0.0172291 1.36468 0)
(0.0118966 1.36424 0)
(0.00323708 1.36352 0)
(-0.0084166 1.36256 0)
(-0.0226165 1.36138 0)
(-0.0388172 1.36004 0)
(-0.0563961 1.35859 0)
(-0.0746773 1.35708 0)
(-0.0929586 1.35557 0)
(-0.110537 1.35412 0)
(-0.126738 1.35278 0)
(-0.140938 1.3516 0)
(-0.152592 1.35064 0)
(-0.161251 1.34993 0)
(-0.166584 1.34948 0)
(-0.168384 1.34934 0)
(-0.166584 1.34948 0)
(-0.161251 1.34993 0)
(-0.152592 1.35064 0)
(-0.140938 1.3516 0)
(-0.126738 1.35278 0)
(-0.110537 1.35412 0)
(-0.0929586 1.35557 0)
(-0.0858502 1.48907 0)
(-0.0667069 1.49073 0)
(-0.0482991 1.49233 0)
(-0.0313344 1.4938 0)
(-0.0164649 1.49508 0)
(-0.00426173 1.49614 0)
(0.00480618 1.49693 0)
(0.0103901 1.49741 0)
(0.0122755 1.49757 0)
(0.0103901 1.49741 0)
(0.00480618 1.49693 0)
(-0.00426173 1.49614 0)
(-0.0164649 1.49508 0)
(-0.0313344 1.4938 0)
(-0.0482991 1.49233 0)
(-0.0667069 1.49073 0)
(-0.0858502 1.48907 0)
(-0.104994 1.48742 0)
(-0.123401 1.48582 0)
(-0.140366 1.48435 0)
(-0.155235 1.48307 0)
(-0.167439 1.48201 0)
(-0.176507 1.48122 0)
(-0.182091 1.48074 0)
(-0.183976 1.48058 0)
(-0.182091 1.48074 0)
(-0.176507 1.48122 0)
(-0.167439 1.48201 0)
(-0.155235 1.48307 0)
(-0.140366 1.48435 0)
(-0.123401 1.48582 0)
(-0.104994 1.48742 0)
(-0.0980836 1.62715 0)
(-0.0780794 1.62896 0)
(-0.0588438 1.6307 0)
(-0.0411163 1.6323 0)
(-0.0255781 1.63371 0)
(-0.0128261 1.63487 0)
(-0.00335043 1.63572 0)
(0.0024846 1.63625 0)
(0.00445477 1.63643 0)
(0.0024846 1.63625 0)
(-0.00335043 1.63572 0)
(-0.0128261 1.63487 0)
(-0.0255781 1.63371 0)
(-0.0411163 1.6323 0)
(-0.0588438 1.6307 0)
(-0.0780794 1.62896 0)
(-0.0980836 1.62715 0)
(-0.118088 1.62533 0)
(-0.137323 1.62359 0)
(-0.155051 1.62199 0)
(-0.170589 1.62058 0)
(-0.183341 1.61942 0)
(-0.192817 1.61857 0)
(-0.198652 1.61804 0)
(-0.200622 1.61786 0)
(-0.198652 1.61804 0)
(-0.192817 1.61857 0)
(-0.183341 1.61942 0)
(-0.170589 1.62058 0)
(-0.155051 1.62199 0)
(-0.137323 1.62359 0)
(-0.118088 1.62533 0)
(-0.111425 1.77128 0)
(-0.0905615 1.77326 0)
(-0.0704992 1.77515 0)
(-0.0520099 1.7769 0)
(-0.035804 1.77843 0)
(-0.022504 1.77969 0)
(-0.0126211 1.78062 0)
(-0.00653534 1.7812 0)
(-0.00448051 1.78139 0)
(-0.00653534 1.7812 0)
(-0.0126211 1.78062 0)
(-0.022504 1.77969 0)
(-0.035804 1.77843 0)
(-0.0520099 1.7769 0)
(-0.0704992 1.77515 0)
(-0.0905615 1.77326 0)
(-0.111425 1.77128 0)
(-0.132289 1.76931 0)
(-0.152351 1.76741 0)
(-0.170841 1.76567 0)
(-0.187047 1.76414 0)
(-0.200347 1.76288 0)
(-0.210229 1.76194 0)
(-0.216315 1.76137 0)
(-0.21837 1.76117 0)
(-0.216315 1.76137 0)
(-0.210229 1.76194 0)
(-0.200347 1.76288 0)
(-0.187047 1.76414 0)
(-0.170841 1.76567 0)
(-0.152351 1.76741 0)
(-0.132289 1.76931 0)
(-0.125923 1.92148 0)
(-0.104201 1.92362 0)
(-0.083313 1.92568 0)
(-0.064063 1.92757 0)
(-0.0471904 1.92924 0)
(-0.0333433 1.9306 0)
(-0.0230538 1.93161 0)
(-0.0167176 1.93224 0)
(-0.0145782 1.93245 0)
(-0.0167176 1.93224 0)
(-0.0230538 1.93161 0)
(-0.0333433 1.9306 0)
(-0.0471904 1.92924 0)
(-0.064063 1.92757 0)
(-0.083313 1.92568 0)
(-0.104201 1.92362 0)
(-0.125923 1.92148 0)
(-0.147645 1.91934 0)
(-0.168533 1.91728 0)
(-0.187783 1.91539 0)
(-0.204655 1.91373 0)
(-0.218502 1.91236 0)
(-0.228792 1.91135 0)
(-0.235128 1.91073 0)
(-0.237267 1.91051 0)
(-0.235128 1.91073 0)
(-0.228792 1.91135 0)
(-0.218502 1.91236 0)
(-0.204655 1.91373 0)
(-0.187783 1.91539 0)
(-0.168533 1.91728 0)
(-0.147645 1.91934 0)
(-0.141624 2.07773 0)
(-0.119045 2.08004 0)
(-0.0973329 2.08227 0)
(-0.0773234 2.08432 0)
(-0.0597851 2.08611 0)
(-0.0453916 2.08759 0)
(-0.0346962 2.08868 0)
(-0.02811 2.08936 0)
(-0.0258863 2.08959 0)
(-0.02811 2.08936 0)
(-0.0346962 2.08868 0)
(-0.0453916 2.08759 0)
(-0.0597851 2.08611 0)
(-0.0773234 2.08432 0)
(-0.0973329 2.08227 0)
(-0.119045 2.08004 0)
(-0.141624 2.07773 0)
(-0.164203 2.07542 0)
(-0.185915 2.07319 0)
(-0.205924 2.07114 0)
(-0.223462 2.06934 0)
(-0.237856 2.06787 0)
(-0.248551 2.06677 0)
(-0.255137 2.0661 0)
(-0.257361 2.06587 0)
(-0.255137 2.0661 0)
(-0.248551 2.06677 0)
(-0.237856 2.06787 0)
(-0.223462 2.06934 0)
(-0.205924 2.07114 0)
(-0.185915 2.07319 0)
(-0.164203 2.07542 0)
(-0.158576 2.24002 0)
(-0.135141 2.24251 0)
(-0.112606 2.24491 0)
(-0.0918386 2.24712 0)
(-0.0736357 2.24906 0)
(-0.0586968 2.25065 0)
(-0.0475961 2.25183 0)
(-0.0407604 2.25256 0)
(-0.0384523 2.2528 0)
(-0.0407604 2.25256 0)
(-0.0475961 2.25183 0)
(-0.0586968 2.25065 0)
(-0.0736357 2.24906 0)
(-0.0918386 2.24712 0)
(-0.112606 2.24491 0)
(-0.135141 2.24251 0)
(-0.158576 2.24002 0)
(-0.18201 2.23752 0)
(-0.204545 2.23512 0)
(-0.225313 2.23291 0)
(-0.243515 2.23098 0)
(-0.258454 2.22939 0)
(-0.269555 2.22821 0)
(-0.276391 2.22748 0)
(-0.278699 2.22723 0)
(-0.276391 2.22748 0)
(-0.269555 2.22821 0)
(-0.258454 2.22939 0)
(-0.243515 2.23098 0)
(-0.225313 2.23291 0)
(-0.204545 2.23512 0)
(-0.18201 2.23752 0)
(-0.176823 2.40831 0)
(-0.152534 2.411 0)
(-0.129179 2.41357 0)
(-0.107654 2.41595 0)
(-0.0887879 2.41803 0)
(-0.0733045 2.41974 0)
(-0.0617993 2.42101 0)
(-0.0547144 2.42179 0)
(-0.0523223 2.42206 0)
(-0.0547144 2.42179 0)
(-0.0617993 2.42101 0)
(-0.0733045 2.41974 0)
(-0.0887879 2.41803 0)
(-0.107654 2.41595 0)
(-0.129179 2.41357 0)
(-0.152534 2.411 0)
(-0.176823 2.40831 0)
(-0.201112 2.40563 0)
(-0.224468 2.40305 0)
(-0.245992 2.40068 0)
(-0.264859 2.39859 0)
(-0.280342 2.39689 0)
(-0.291847 2.39561 0)
(-0.298932 2.39483 0)
(-0.301324 2.39457 0)
(-0.298932 2.39483 0)
(-0.291847 2.39561 0)
(-0.280342 2.39689 0)
(-0.264859 2.39859 0)
(-0.245992 2.40068 0)
(-0.224468 2.40305 0)
(-0.201112 2.40563 0)
(-0.196419 2.58265 0)
(-0.171277 2.58553 0)
(-0.147102 2.58829 0)
(-0.124822 2.59084 0)
(-0.105293 2.59307 0)
(-0.089266 2.59491 0)
(-0.0773568 2.59627 0)
(-0.0700233 2.59711 0)
(-0.0675472 2.59739 0)
(-0.0700233 2.59711 0)
(-0.0773568 2.59627 0)
(-0.089266 2.59491 0)
(-0.105293 2.59307 0)
(-0.124822 2.59084 0)
(-0.147102 2.58829 0)
(-0.171277 2.58553 0)
(-0.196419 2.58265 0)
(-0.22156 2.57978 0)
(-0.245736 2.57701 0)
(-0.268016 2.57446 0)
(-0.287545 2.57223 0)
(-0.303572 2.5704 0)
(-0.315481 2.56903 0)
(-0.322815 2.56819 0)
(-0.325291 2.56791 0)
(-0.322815 2.56819 0)
(-0.315481 2.56903 0)
(-0.303572 2.5704 0)
(-0.287545 2.57223 0)
(-0.268016 2.57446 0)
(-0.245736 2.57701 0)
(-0.22156 2.57978 0)
(-0.217407 2.763 0)
(-0.191415 2.76607 0)
(-0.166421 2.76903 0)
(-0.143386 2.77176 0)
(-0.123196 2.77415 0)
(-0.106627 2.77611 0)
(-0.0943146 2.77757 0)
(-0.0867328 2.77846 0)
(-0.0841728 2.77877 0)
(-0.0867328 2.77846 0)
(-0.0943146 2.77757 0)
(-0.106627 2.77611 0)
(-0.123196 2.77415 0)
(-0.143386 2.77176 0)
(-0.166421 2.76903 0)
(-0.191415 2.76607 0)
(-0.217407 2.763 0)
(-0.2434 2.75992 0)
(-0.268394 2.75696 0)
(-0.291429 2.75424 0)
(-0.311618 2.75185 0)
(-0.328188 2.74989 0)
(-0.3405 2.74843 0)
(-0.348082 2.74753 0)
(-0.350642 2.74723 0)
(-0.348082 2.74753 0)
(-0.3405 2.74843 0)
(-0.328188 2.74989 0)
(-0.311618 2.75185 0)
(-0.291429 2.75424 0)
(-0.268394 2.75696 0)
(-0.2434 2.75992 0)
(-0.239836 2.94934 0)
(-0.212994 2.95263 0)
(-0.187183 2.95578 0)
(-0.163395 2.95869 0)
(-0.142546 2.96125 0)
(-0.125435 2.96334 0)
(-0.11272 2.96489 0)
(-0.10489 2.96585 0)
(-0.102247 2.96618 0)
(-0.10489 2.96585 0)
(-0.11272 2.96489 0)
(-0.125435 2.96334 0)
(-0.142546 2.96125 0)
(-0.163395 2.95869 0)
(-0.187183 2.95578 0)
(-0.212994 2.95263 0)
(-0.239836 2.94934 0)
(-0.266678 2.94606 0)
(-0.292489 2.9429 0)
(-0.316276 2.93999 0)
(-0.337126 2.93744 0)
(-0.354237 2.93535 0)
(-0.366952 2.93379 0)
(-0.374781 2.93283 0)
(-0.377425 2.93251 0)
(-0.374781 2.93283 0)
(-0.366952 2.93379 0)
(-0.354237 2.93535 0)
(-0.337126 2.93744 0)
(-0.316276 2.93999 0)
(-0.292489 2.9429 0)
(-0.266678 2.94606 0)
(-0.263751 3.14167 0)
(-0.236061 3.14517 0)
(-0.209435 3.14854 0)
(-0.184896 3.15164 0)
(-0.163388 3.15435 0)
(-0.145737 3.15658 0)
(-0.13262 3.15824 0)
(-0.124543 3.15926 0)
(-0.121816 3.1596 0)
(-0.124543 3.15926 0)
(-0.13262 3.15824 0)
(-0.145737 3.15658 0)
(-0.163388 3.15435 0)
(-0.184896 3.15164 0)
(-0.209435 3.14854 0)
(-0.236061 3.14517 0)
(-0.263751 3.14167 0)
(-0.291441 3.13818 0)
(-0.318068 3.13481 0)
(-0.342606 3.13171 0)
(-0.364114 3.129 0)
(-0.381766 3.12677 0)
(-0.394882 3.12511 0)
(-0.402959 3.12409 0)
(-0.405686 3.12374 0)
(-0.402959 3.12409 0)
(-0.394882 3.12511 0)
(-0.381766 3.12677 0)
(-0.364114 3.129 0)
(-0.342606 3.13171 0)
(-0.318068 3.13481 0)
(-0.291441 3.13818 0)
(-0.289201 3.33998 0)
(-0.260665 3.3437 0)
(-0.233225 3.34728 0)
(-0.207936 3.35057 0)
(-0.185771 3.35346 0)
(-0.16758 3.35583 0)
(-0.154063 3.35759 0)
(-0.145739 3.35868 0)
(-0.142929 3.35904 0)
(-0.145739 3.35868 0)
(-0.154063 3.35759 0)
(-0.16758 3.35583 0)
(-0.185771 3.35346 0)
(-0.207936 3.35057 0)
(-0.233225 3.34728 0)
(-0.260665 3.3437 0)
(-0.289201 3.33998 0)
(-0.317737 3.33626 0)
(-0.345177 3.33269 0)
(-0.370466 3.32939 0)
(-0.392631 3.3265 0)
(-0.410822 3.32413 0)
(-0.424339 3.32237 0)
(-0.432663 3.32128 0)
(-0.435473 3.32092 0)
(-0.432663 3.32128 0)
(-0.424339 3.32237 0)
(-0.410822 3.32413 0)
(-0.392631 3.3265 0)
(-0.370466 3.32939 0)
(-0.345177 3.33269 0)
(-0.317737 3.33626 0)
(-0.316231 3.54425 0)
(-0.286851 3.5482 0)
(-0.258599 3.55199 0)
(-0.232562 3.55549 0)
(-0.209741 3.55855 0)
(-0.191012 3.56107 0)
(-0.177094 3.56294 0)
(-0.168524 3.56409 0)
(-0.165631 3.56448 0)
(-0.168524 3.56409 0)
(-0.177094 3.56294 0)
(-0.191012 3.56107 0)
(-0.209741 3.55855 0)
(-0.232562 3.55549 0)
(-0.258599 3.55199 0)
(-0.286851 3.5482 0)
(-0.316231 3.54425 0)
(-0.345612 3.5403 0)
(-0.373864 3.53651 0)
(-0.399901 3.53301 0)
(-0.422722 3.52995 0)
(-0.441451 3.52743 0)
(-0.455368 3.52556 0)
(-0.463938 3.52441 0)
(-0.466832 3.52402 0)
(-0.463938 3.52441 0)
(-0.455368 3.52556 0)
(-0.441451 3.52743 0)
(-0.422722 3.52995 0)
(-0.399901 3.53301 0)
(-0.373864 3.53651 0)
(-0.345612 3.5403 0)
(-0.34489 3.75447 0)
(-0.314666 3.75865 0)
(-0.285604 3.76267 0)
(-0.258821 3.76637 0)
(-0.235345 3.76962 0)
(-0.216079 3.77228 0)
(-0.201762 3.77426 0)
(-0.192947 3.77548 0)
(-0.18997 3.7759 0)
(-0.192947 3.77548 0)
(-0.201762 3.77426 0)
(-0.216079 3.77228 0)
(-0.235345 3.76962 0)
(-0.258821 3.76637 0)
(-0.285604 3.76267 0)
(-0.314666 3.75865 0)
(-0.34489 3.75447 0)
(-0.375113 3.75029 0)
(-0.404175 3.74627 0)
(-0.430958 3.74256 0)
(-0.454434 3.73932 0)
(-0.4737 3.73665 0)
(-0.488017 3.73467 0)
(-0.496833 3.73345 0)
(-0.499809 3.73304 0)
(-0.496833 3.73345 0)
(-0.488017 3.73467 0)
(-0.4737 3.73665 0)
(-0.454434 3.73932 0)
(-0.430958 3.74256 0)
(-0.404175 3.74627 0)
(-0.375113 3.75029 0)
(-0.375222 3.97062 0)
(-0.344158 3.97504 0)
(-0.314288 3.9793 0)
(-0.286759 3.98321 0)
(-0.26263 3.98665 0)
(-0.242828 3.98947 0)
(-0.228114 3.99156 0)
(-0.219053 3.99285 0)
(-0.215993 3.99328 0)
(-0.219053 3.99285 0)
(-0.228114 3.99156 0)
(-0.242828 3.98947 0)
(-0.26263 3.98665 0)
(-0.286759 3.98321 0)
(-0.314288 3.9793 0)
(-0.344158 3.97504 0)
(-0.375222 3.97062 0)
(-0.406286 3.9662 0)
(-0.436156 3.96195 0)
(-0.463685 3.95803 0)
(-0.487814 3.9546 0)
(-0.507616 3.95178 0)
(-0.522331 3.94969 0)
(-0.531392 3.9484 0)
(-0.534451 3.94796 0)
(-0.531392 3.9484 0)
(-0.522331 3.94969 0)
(-0.507616 3.95178 0)
(-0.487814 3.9546 0)
(-0.463685 3.95803 0)
(-0.436156 3.96195 0)
(-0.406286 3.9662 0)
(-0.407276 4.1927 0)
(-0.375373 4.19737 0)
(-0.344696 4.20186 0)
(-0.316424 4.206 0)
(-0.291644 4.20962 0)
(-0.271307 4.2126 0)
(-0.256195 4.21481 0)
(-0.246889 4.21617 0)
(-0.243747 4.21663 0)
(-0.246889 4.21617 0)
(-0.256195 4.21481 0)
(-0.271307 4.2126 0)
(-0.291644 4.20962 0)
(-0.316424 4.206 0)
(-0.344696 4.20186 0)
(-0.375373 4.19737 0)
(-0.407276 4.1927 0)
(-0.439178 4.18803 0)
(-0.469855 4.18354 0)
(-0.498127 4.17941 0)
(-0.522908 4.17578 0)
(-0.543245 4.17281 0)
(-0.558356 4.17059 0)
(-0.567662 4.16923 0)
(-0.570804 4.16877 0)
(-0.567662 4.16923 0)
(-0.558356 4.17059 0)
(-0.543245 4.17281 0)
(-0.522908 4.17578 0)
(-0.498127 4.17941 0)
(-0.469855 4.18354 0)
(-0.439178 4.18803 0)
(-0.441097 4.42069 0)
(-0.408357 4.42561 0)
(-0.376875 4.43035 0)
(-0.347862 4.43471 0)
(-0.322431 4.43853 0)
(-0.301561 4.44167 0)
(-0.286053 4.444 0)
(-0.276503 4.44544 0)
(-0.273278 4.44592 0)
(-0.276503 4.44544 0)
(-0.286053 4.444 0)
(-0.301561 4.44167 0)
(-0.322431 4.43853 0)
(-0.347862 4.43471 0)
(-0.376875 4.43035 0)
(-0.408357 4.42561 0)
(-0.441097 4.42069 0)
(-0.473836 4.41577 0)
(-0.505318 4.41104 0)
(-0.534331 4.40667 0)
(-0.559762 4.40285 0)
(-0.580632 4.39971 0)
(-0.59614 4.39738 0)
(-0.60569 4.39595 0)
(-0.608915 4.39546 0)
(-0.60569 4.39595 0)
(-0.59614 4.39738 0)
(-0.580632 4.39971 0)
(-0.559762 4.40285 0)
(-0.534331 4.40667 0)
(-0.505318 4.41104 0)
(-0.473836 4.41577 0)
(-0.476731 4.65458 0)
(-0.443157 4.65976 0)
(-0.410872 4.66474 0)
(-0.381119 4.66933 0)
(-0.35504 4.67336 0)
(-0.333638 4.67666 0)
(-0.317734 4.67912 0)
(-0.307941 4.68063 0)
(-0.304634 4.68114 0)
(-0.307941 4.68063 0)
(-0.317734 4.67912 0)
(-0.333638 4.67666 0)
(-0.35504 4.67336 0)
(-0.381119 4.66933 0)
(-0.410872 4.66474 0)
(-0.443157 4.65976 0)
(-0.476731 4.65458 0)
(-0.510306 4.64939 0)
(-0.54259 4.64441 0)
(-0.572343 4.63982 0)
(-0.598422 4.63579 0)
(-0.619825 4.63249 0)
(-0.635728 4.63003 0)
(-0.645522 4.62852 0)
(-0.648828 4.62801 0)
(-0.645522 4.62852 0)
(-0.635728 4.63003 0)
(-0.619825 4.63249 0)
(-0.598422 4.63579 0)
(-0.572343 4.63982 0)
(-0.54259 4.64441 0)
(-0.510306 4.64939 0)
(-0.514226 4.89434 0)
(-0.479819 4.89979 0)
(-0.446734 4.90503 0)
(-0.416242 4.90986 0)
(-0.389517 4.91409 0)
(-0.367583 4.91757 0)
(-0.351285 4.92015 0)
(-0.341249 4.92174 0)
(-0.33786 4.92227 0)
(-0.341249 4.92174 0)
(-0.351285 4.92015 0)
(-0.367583 4.91757 0)