/*--------------------------------*- C++ -*----------------------------------*\
| =========                 |                                                 |
| \\      /  F ield         | OpenFOAM: The Open Source CFD Toolbox           |
|  \\    /   O peration     | Version:  v2012                                 |
|   \\  /    A nd           | Website:  www.openfoam.com                      |
|    \\/     M anipulation  |                                                 |
\*---------------------------------------------------------------------------*/
FoamFile
{
    version     2.0;
    format      ascii;
    class       surfaceTensorField;
    location    "0";
    object      refLambda;
}
// * * * * * * * * * * * * * * * * * * * * * * * * * * * * * * * * * * * * * //

dimensions      [0 0 0 0 0 0 0];


internalField   nonuniform List<tensor> 
99
(
(0.999969 -0.0078539 0 0.0078539 0.999969 0 0 0 1)
(0.999877 -0.0157074 0 0.0157074 0.999877 0 0 0 1)
(0.999722 -0.0235597 0 0.0235597 0.999722 0 0 0 1)
(0.999507 -0.0314107 0 0.0314107 0.999507 0 0 0 1)
(0.999229 -0.0392598 0 0.0392598 0.999229 0 0 0 1)
(0.99889 -0.0471065 0 0.0471065 0.99889 0 0 0 1)
(0.998489 -0.0549502 0 0.0549502 0.998489 0 0 0 1)
(0.998027 -0.0627906 0 0.0627906 0.998027 0 0 0 1)
(0.997503 -0.070627 0 0.070627 0.997503 0 0 0 1)
(0.996917 -0.0784591 0 0.0784591 0.996917 0 0 0 1)
(0.99627 -0.0862864 0 0.0862864 0.99627 0 0 0 1)
(0.995562 -0.0941084 0 0.0941084 0.995562 0 0 0 1)
(0.994792 -0.101925 0 0.101925 0.994792 0 0 0 1)
(0.993961 -0.109735 0 0.109735 0.993961 0 0 0 1)
(0.993068 -0.117538 0 0.117538 0.993068 0 0 0 1)
(0.992115 -0.125334 0 0.125334 0.992115 0 0 0 1)
(0.9911 -0.133122 0 0.133122 0.9911 0 0 0 1)
(0.990024 -0.140902 0 0.140902 0.990024 0 0 0 1)
(0.988886 -0.148673 0 0.148673 0.988886 0 0 0 1)
(0.987688 -0.156435 0 0.156435 0.987688 0 0 0 1)
(0.986429 -0.164187 0 0.164187 0.986429 0 0 0 1)
(0.985109 -0.17193 0 0.17193 0.985109 0 0 0 1)
(0.983729 -0.179661 0 0.179661 0.983729 0 0 0 1)
(0.982287 -0.187382 0 0.187382 0.982287 0 0 0 1)
(0.980785 -0.195091 0 0.195091 0.980785 0 0 0 1)
(0.979223 -0.202788 0 0.202788 0.979223 0 0 0 1)
(0.9776 -0.210472 0 0.210472 0.9776 0 0 0 1)
(0.975917 -0.218143 0 0.218143 0.975917 0 0 0 1)
(0.974173 -0.225801 0 0.225801 0.974173 0 0 0 1)
(0.97237 -0.233445 0 0.233445 0.97237 0 0 0 1)
(0.970507 -0.241075 0 0.241075 0.970507 0 0 0 1)
(0.968583 -0.24869 0 0.24869 0.968583 0 0 0 1)
(0.9666 -0.256289 0 0.256289 0.9666 0 0 0 1)
(0.964558 -0.263873 0 0.263873 0.964558 0 0 0 1)
(0.962455 -0.27144 0 0.27144 0.962455 0 0 0 1)
(0.960294 -0.278991 0 0.278991 0.960294 0 0 0 1)
(0.958073 -0.286524 0 0.286524 0.958073 0 0 0 1)
(0.955793 -0.29404 0 0.29404 0.955793 0 0 0 1)
(0.953454 -0.301538 0 0.301538 0.953454 0 0 0 1)
(0.951057 -0.309017 0 0.309017 0.951057 0 0 0 1)
(0.9486 -0.316477 0 0.316477 0.9486 0 0 0 1)
(0.946085 -0.323917 0 0.323917 0.946085 0 0 0 1)
(0.943512 -0.331338 0 0.331338 0.943512 0 0 0 1)
(0.940881 -0.338738 0 0.338738 0.940881 0 0 0 1)
(0.938191 -0.346117 0 0.346117 0.938191 0 0 0 1)
(0.935444 -0.353475 0 0.353475 0.935444 0 0 0 1)
(0.932639 -0.360811 0 0.360811 0.932639 0 0 0 1)
(0.929777 -0.368125 0 0.368125 0.929777 0 0 0 1)
(0.926857 -0.375416 0 0.375416 0.926857 0 0 0 1)
(0.92388 -0.382683 0 0.382683 0.92388 0 0 0 1)
(0.920845 -0.389928 0 0.389928 0.920845 0 0 0 1)
(0.917755 -0.397148 0 0.397148 0.917755 0 0 0 1)
(0.914607 -0.404344 0 0.404344 0.914607 0 0 0 1)
(0.911403 -0.411514 0 0.411514 0.911403 0 0 0 1)
(0.908143 -0.41866 0 0.41866 0.908143 0 0 0 1)
(0.904827 -0.425779 0 0.425779 0.904827 0 0 0 1)
(0.901455 -0.432873 0 0.432873 0.901455 0 0 0 1)
(0.898028 -0.439939 0 0.439939 0.898028 0 0 0 1)
(0.894545 -0.446979 0 0.446979 0.894545 0 0 0 1)
(0.891006 -0.453991 0 0.453991 0.891006 0 0 0 1)
(0.887413 -0.460975 0 0.460975 0.887413 0 0 0 1)
(0.883766 -0.46793 0 0.46793 0.883766 0 0 0 1)
(0.880063 -0.474857 0 0.474857 0.880063 0 0 0 1)
(0.876307 -0.481754 0 0.481754 0.876307 0 0 0 1)
(0.872496 -0.488622 0 0.488622 0.872496 0 0 0 1)
(0.868631 -0.495459 0 0.495459 0.868631 0 0 0 1)
(0.864713 -0.502266 0 0.502266 0.864713 0 0 0 1)
(0.860742 -0.509042 0 0.509042 0.860742 0 0 0 1)
(0.856717 -0.515786 0 0.515786 0.856717 0 0 0 1)
(0.85264 -0.522499 0 0.522499 0.85264 0 0 0 1)
(0.84851 -0.529179 0 0.529179 0.84851 0 0 0 1)
(0.844328 -0.535827 0 0.535827 0.844328 0 0 0 1)
(0.840093 -0.542442 0 0.542442 0.840093 0 0 0 1)
(0.835807 -0.549023 0 0.549023 0.835807 0 0 0 1)
(0.831469 -0.555571 0 0.555571 0.831469 0 0 0 1)
(0.82708 -0.562084 0 0.562084 0.82708 0 0 0 1)
(0.82264 -0.568562 0 0.568562 0.82264 0 0 0 1)
(0.818149 -0.575006 0 0.575006 0.818149 0 0 0 1)
(0.813608 -0.581414 0 0.581414 0.813608 0 0 0 1)
(0.809017 -0.587786 0 0.587786 0.809017 0 0 0 1)
(0.804375 -0.594122 0 0.594122 0.804375 0 0 0 1)
(0.799685 -0.60042 0 0.60042 0.799685 0 0 0 1)
(0.794945 -0.606682 0 0.606682 0.794945 0 0 0 1)
(0.790155 -0.612907 0 0.612907 0.790155 0 0 0 1)
(0.785317 -0.619094 0 0.619094 0.785317 0 0 0 1)
(0.780431 -0.625242 0 0.625242 0.780431 0 0 0 1)
(0.775496 -0.631353 0 0.631353 0.775496 0 0 0 1)
(0.770513 -0.637424 0 0.637424 0.770513 0 0 0 1)
(0.765483 -0.643456 0 0.643456 0.765483 0 0 0 1)
(0.760406 -0.649448 0 0.649448 0.760406 0 0 0 1)
(0.755282 -0.6554 0 0.6554 0.755282 0 0 0 1)
(0.750111 -0.661312 0 0.661312 0.750111 0 0 0 1)
(0.744894 -0.667183 0 0.667183 0.744894 0 0 0 1)
(0.739631 -0.673012 0 0.673012 0.739631 0 0 0 1)
(0.734323 -0.678801 0 0.678801 0.734323 0 0 0 1)
(0.728969 -0.684547 0 0.684547 0.728969 0 0 0 1)
(0.72357 -0.690251 0 0.690251 0.72357 0 0 0 1)
(0.718126 -0.695913 0 0.695913 0.718126 0 0 0 1)
(0.712639 -0.701531 0 0.701531 0.712639 0 0 0 1)
)
;

boundaryField
{
    left
    {
        type            calculated;
        value           uniform (1 -3.03068e-35 0 3.03068e-35 1 0 0 0 1);
    }
    right
    {
        type            calculated;
        value           uniform (0.707107 -0.707107 0 0.707107 0.707107 0 0 0 1);
    }
    beam
    {
        type            empty;
        value           nonuniform List<tensor> 0();
    }
}


// ************************************************************************* //
