/*--------------------------------*- C++ -*----------------------------------*\
| =========                 |                                                 |
| \\      /  F ield         | OpenFOAM: The Open Source CFD Toolbox           |
|  \\    /   O peration     | Version:  v2012                                 |
|   \\  /    A nd           | Website:  www.openfoam.com                      |
|    \\/     M anipulation  |                                                 |
\*---------------------------------------------------------------------------*/
FoamFile
{
    version     2.0;
    format      ascii;
    class       surfaceVectorField;
    location    "0";
    object      refWf;
}
// * * * * * * * * * * * * * * * * * * * * * * * * * * * * * * * * * * * * * //

dimensions      [0 1 0 0 0 0 0];


internalField   nonuniform List<vector> 
99
(
(-8.07452e-06 0.00308423 0)
(-6.45961e-05 0.0123368 0)
(-0.000218006 0.0277569 0)
(-0.000516745 0.0493439 0)
(-0.00100924 0.0770964 0)
(-0.00174391 0.111013 0)
(-0.00276916 0.15109 0)
(-0.00413337 0.197327 0)
(-0.00588487 0.24972 0)
(-0.00807206 0.308267 0)
(-0.0107432 0.372962 0)
(-0.0139466 0.443804 0)
(-0.0177307 0.520788 0)
(-0.0221433 0.603907 0)
(-0.0272329 0.693158 0)
(-0.0330475 0.788534 0)
(-0.0396352 0.89003 0)
(-0.0470441 0.997639 0)
(-0.0553221 1.11136 0)
(-0.0645172 1.23117 0)
(-0.0746773 1.35708 0)
(-0.0858502 1.48907 0)
(-0.0980836 1.62715 0)
(-0.111425 1.77128 0)
(-0.125923 1.92148 0)
(-0.141624 2.07773 0)
(-0.158576 2.24002 0)
(-0.176823 2.40831 0)
(-0.196419 2.58265 0)
(-0.217407 2.763 0)
(-0.239836 2.94934 0)
(-0.263751 3.14167 0)
(-0.289201 3.33998 0)
(-0.316231 3.54425 0)
(-0.34489 3.75447 0)
(-0.375222 3.97062 0)
(-0.407276 4.1927 0)
(-0.441097 4.42069 0)
(-0.476731 4.65458 0)
(-0.514226 4.89434 0)
(-0.553627 5.13997 0)
(-0.59498 5.39146 0)
(-0.638331 5.64878 0)
(-0.683726 5.91192 0)
(-0.731211 6.18086 0)
(-0.78083 6.45559 0)
(-0.83263 6.73609 0)
(-0.886656 7.02235 0)
(-0.942953 7.31434 0)
(-1.00156 7.61205 0)
(-1.06254 7.91545 0)
(-1.12592 8.22454 0)
(-1.19174 8.53928 0)
(-1.26007 8.85967 0)
(-1.33093 9.18568 0)
(-1.40437 9.5173 0)
(-1.48044 9.85449 0)
(-1.55918 10.1972 0)
(-1.64063 10.5455 0)
(-1.72484 10.8994 0)
(-1.81185 11.2587 0)
(-1.90171 11.6234 0)
(-1.99445 11.9937 0)
(-2.09012 12.3693 0)
(-2.18876 12.7504 0)
(-2.29042 13.1369 0)
(-2.39513 13.5287 0)
(-2.50294 13.9258 0)
(-2.61389 14.3283 0)
(-2.72802 14.736 0)
(-2.84538 15.149 0)
(-2.96599 15.5672 0)
(-3.08992 15.9907 0)
(-3.21719 16.4193 0)
(-3.34785 16.8531 0)
(-3.48193 17.292 0)
(-3.61948 17.736 0)
(-3.76054 18.1851 0)
(-3.90515 18.6392 0)
(-4.05334 19.0983 0)
(-4.20516 19.5625 0)
(-4.36062 20.0315 0)
(-4.5198 20.5055 0)
(-4.68273 20.9845 0)
(-4.84944 21.4683 0)
(-5.01997 21.9569 0)
(-5.19435 22.4504 0)
(-5.37263 22.9487 0)
(-5.55484 23.4517 0)
(-5.74102 23.9594 0)
(-5.93121 24.4718 0)
(-6.12544 24.9889 0)
(-6.32375 25.5106 0)
(-6.52617 26.0369 0)
(-6.73275 26.5677 0)
(-6.94351 27.1031 0)
(-7.15849 27.643 0)
(-7.37774 28.1874 0)
(-7.60127 28.7361 0)
)
;

boundaryField
{
    left
    {
        type            calculated;
        value           uniform (6.84228e-49 0 0);
    }
    right
    {
        type            calculated;
        value           uniform (-7.82914 29.2893 0);
    }
    beam
    {
        type            empty;
        value           nonuniform List<vector> 0();
    }
}


// ************************************************************************* //
