/*--------------------------------*- C++ -*----------------------------------*\
| =========                 |                                                 |
| \\      /  F ield         | OpenFOAM: The Open Source CFD Toolbox           |
|  \\    /   O peration     | Version:  v2012                                 |
|   \\  /    A nd           | Website:  www.openfoam.com                      |
|    \\/     M anipulation  |                                                 |
\*---------------------------------------------------------------------------*/
FoamFile
{
    version     2.0;
    format      ascii;
    class       volVectorField;
    location    "0";
    object      refW;
}
// * * * * * * * * * * * * * * * * * * * * * * * * * * * * * * * * * * * * * //

dimensions      [0 1 0 0 0 0 0];


internalField   nonuniform List<vector> 
100
(
(-1.00932e-06 0.000771062 0)
(-2.72516e-05 0.00693951 0)
(-0.000126162 0.0192759 0)
(-0.000346182 0.0377796 0)
(-0.000735747 0.0624495 0)
(-0.00134328 0.0932841 0)
(-0.00221719 0.130281 0)
(-0.00340587 0.173439 0)
(-0.00495768 0.222755 0)
(-0.00692099 0.278224 0)
(-0.00934413 0.339846 0)
(-0.0122754 0.407615 0)
(-0.0157631 0.481529 0)
(-0.0198554 0.561581 0)
(-0.0246005 0.647766 0)
(-0.0300466 0.74008 0)
(-0.0362417 0.838517 0)
(-0.043234 0.943071 0)
(-0.0510715 1.05373 0)
(-0.0598021 1.1705 0)
(-0.0694737 1.29337 0)
(-0.0801342 1.42232 0)
(-0.0918314 1.55735 0)
(-0.104613 1.69846 0)
(-0.118527 1.84563 0)
(-0.13362 1.99885 0)
(-0.14994 2.15812 0)
(-0.167534 2.32341 0)
(-0.18645 2.49473 0)
(-0.206736 2.67207 0)
(-0.228439 2.85542 0)
(-0.251605 3.04476 0)
(-0.276281 3.24008 0)
(-0.302516 3.44137 0)
(-0.330354 3.64862 0)
(-0.359844 3.8618 0)
(-0.391031 4.08092 0)
(-0.423962 4.30596 0)
(-0.458684 4.5369 0)
(-0.495243 4.77372 0)
(-0.533685 5.01643 0)
(-0.574057 5.26499 0)
(-0.616403 5.51939 0)
(-0.66077 5.77962 0)
(-0.707205 6.04567 0)
(-0.755751 6.3175 0)
(-0.806455 6.59512 0)
(-0.859362 6.8785 0)
(-0.914518 7.16763 0)
(-0.971966 7.46248 0)
(-1.03175 7.76304 0)
(-1.09392 8.06929 0)
(-1.15852 8.3812 0)
(-1.22559 8.69878 0)
(-1.29518 9.02198 0)
(-1.36732 9.35079 0)
(-1.44207 9.6852 0)
(-1.51947 10.0252 0)
(-1.59956 10.3707 0)
(-1.68239 10.7218 0)
(-1.76799 11.0783 0)
(-1.85642 11.4404 0)
(-1.94771 11.8079 0)
(-2.04191 12.1808 0)
(-2.13906 12.5592 0)
(-2.23921 12.943 0)
(-2.34239 13.3321 0)
(-2.44864 13.7266 0)
(-2.55802 14.1264 0)
(-2.67055 14.5315 0)
(-2.78629 14.9418 0)
(-2.90527 15.3575 0)
(-3.02754 15.7783 0)
(-3.15313 16.2043 0)
(-3.28209 16.6355 0)
(-3.41446 17.0719 0)
(-3.55027 17.5133 0)
(-3.68957 17.9599 0)
(-3.8324 18.4115 0)
(-3.97879 18.8681 0)
(-4.12879 19.3298 0)
(-4.28243 19.7964 0)
(-4.43975 20.2679 0)
(-4.6008 20.7444 0)
(-4.76561 21.2258 0)
(-4.93423 21.712 0)
(-5.10668 22.2031 0)
(-5.283 22.6989 0)
(-5.46324 23.1996 0)
(-5.64744 23.7049 0)
(-5.83561 24.215 0)
(-6.02782 24.7298 0)
(-6.22408 25.2492 0)
(-6.42444 25.7732 0)
(-6.62894 26.3017 0)
(-6.8376 26.8349 0)
(-7.05047 27.3725 0)
(-7.26758 27.9146 0)
(-7.48897 28.4612 0)
(-7.71466 29.0122 0)
)
;

boundaryField
{
    left
    {
        type            calculated;
        value           uniform (6.84228e-49 0 0);
    }
    right
    {
        type            calculated;
        value           uniform (-7.82914 29.2893 0);
    }
    beam
    {
        type            empty;
    }
}


// ************************************************************************* //
