/*--------------------------------*- C++ -*----------------------------------*\
| =========                 |                                                 |
| \\      /  F ield         | OpenFOAM: The Open Source CFD Toolbox           |
|  \\    /   O peration     | Version:  2312                                  |
|   \\  /    A nd           | Website:  www.openfoam.com                      |
|    \\/     M anipulation  |                                                 |
\*---------------------------------------------------------------------------*/
FoamFile
{
    version     2.0;
    format      ascii;
    arch        "LSB;label=32;scalar=64";
    class       surfaceVectorField;
    location    "0.17/beam";
    object      Gamma;
}
// * * * * * * * * * * * * * * * * * * * * * * * * * * * * * * * * * * * * * //

dimensions      [0 0 0 0 0 0 0];

oriented        oriented;

internalField   nonuniform List<vector> 
59
(
(0.001185606987 -1.860049578e-16 -7.818868533e-08)
(0.001185606649 -1.851318019e-16 -7.721123966e-08)
(0.001185606089 -1.836720567e-16 -7.559929787e-08)
(0.001185605314 -1.816188946e-16 -7.337839436e-08)
(0.001185604331 -1.789619524e-16 -7.058379948e-08)
(0.001185603149 -1.756872375e-16 -6.725980048e-08)
(0.00118560178 -1.717749871e-16 -6.345914888e-08)
(0.001185600234 -1.672007824e-16 -5.924277366e-08)
(0.001185598522 -1.619341543e-16 -5.467841845e-08)
(0.001185596655 -1.559381685e-16 -4.983994375e-08)
(0.001185594643 -1.491707051e-16 -4.480660242e-08)
(0.001185592495 -1.415860756e-16 -3.966136612e-08)
(0.001185590218 -1.331347247e-16 -3.449022329e-08)
(0.001185587817 -1.237658272e-16 -2.937954142e-08)
(0.001185585295 -1.134302452e-16 -2.441485108e-08)
(0.001185582656 -1.020868372e-16 -1.967754845e-08)
(0.001185579898 -8.969603488e-17 -1.524239402e-08)
(0.001185577023 -7.623027902e-17 -1.117369325e-08)
(0.001185574029 -6.16823317e-17 -7.521735975e-09)
(0.001185570917 -4.605626519e-17 -4.31840901e-09)
(0.001185567687 -2.937580151e-17 -1.573709555e-09)
(0.001185564345 -1.16815533e-17 7.274183833e-10)
(0.001185560896 6.966566214e-18 2.627653703e-09)
(0.001185557351 2.650407843e-17 4.198566944e-09)
(0.001185553727 4.683910719e-17 5.537256212e-09)
(0.001185550042 6.789490105e-17 6.765431675e-09)
(0.001185546325 8.956986591e-17 8.020048726e-09)
(0.001185542607 1.117864005e-16 9.446901749e-09)
(0.001185538924 1.3444222e-16 1.118632466e-08)
(0.001185535317 1.574094985e-16 1.33632321e-08)
(0.001185531829 1.805643036e-16 1.606984692e-08)
(0.001185528504 2.037493169e-16 1.935754293e-08)
(0.001185525388 2.266321338e-16 2.322110187e-08)
(0.001185522521 2.487953801e-16 2.759937693e-08)
(0.001185519941 2.696018017e-16 3.236677852e-08)
(0.001185517681 2.881873598e-16 3.734788644e-08)
(0.001185515767 3.033748383e-16 4.231986134e-08)
(0.001185514218 3.136892921e-16 4.70406338e-08)
(0.001185513049 3.173410093e-16 5.126039308e-08)
(0.001185512265 3.123106229e-16 5.475515982e-08)
(0.001185511872 2.964736259e-16 5.734028864e-08)
(0.001185511866 2.677950865e-16 5.889623138e-08)
(0.001185512244 2.246487327e-16 5.937411134e-08)
(0.001185513003 1.661090923e-16 5.880195525e-08)
(0.001185514136 9.243708704e-17 5.727833812e-08)
(0.001185515639 5.352388289e-18 5.49566619e-08)
(0.001185517508 -9.14884878e-17 5.202982856e-08)
(0.00118551974 -1.924923273e-16 4.870203881e-08)
(0.001185522334 -2.899937248e-16 4.517379341e-08)
(0.001185525289 -3.748528077e-16 4.1613682e-08)
(0.001185528605 -4.37042808e-16 3.814675799e-08)
(0.001185532284 -4.669842205e-16 3.482487657e-08)
(0.001185536326 -4.568464836e-16 3.159433116e-08)
(0.001185540735 -4.019480521e-16 2.820536517e-08)
(0.001185545509 -3.013667523e-16 2.40279456e-08)
(0.001185550655 -1.563740116e-16 1.760975683e-08)
(0.00118555617 3.52119394e-17 5.705296348e-09)
(0.001185562061 2.941075194e-16 -1.893671284e-08)
(0.001185568326 6.919845546e-16 -7.245634748e-08)
)
;

boundaryField
{
    left
    {
        type            calculated;
        value           uniform (-0.0011856071 -4.498592387e-14 7.851619028e-08);
    }
    right
    {
        type            calculated;
        value           uniform (0.001185574961 -4.374619164e-14 -1.909181204e-07);
    }
    beam
    {
        type            empty;
        value           nonuniform List<vector> 0();
    }
}


// ************************************************************************* //
