/*--------------------------------*- C++ -*----------------------------------*\
| =========                 |                                                 |
| \\      /  F ield         | OpenFOAM: The Open Source CFD Toolbox           |
|  \\    /   O peration     | Version:  2312                                  |
|   \\  /    A nd           | Website:  www.openfoam.com                      |
|    \\/     M anipulation  |                                                 |
\*---------------------------------------------------------------------------*/
FoamFile
{
    version     2.0;
    format      ascii;
    arch        "LSB;label=32;scalar=64";
    class       surfaceVectorField;
    location    "0.17/beam";
    object      K;
}
// * * * * * * * * * * * * * * * * * * * * * * * * * * * * * * * * * * * * * //

dimensions      [0 -1 0 0 0 0 0];

oriented        oriented;

internalField   nonuniform List<vector> 
59
(
(6.934276497e-18 -0.0008683048129 2.062897136e-12)
(1.378278534e-17 -0.001729378503 4.119348054e-12)
(2.04661073e-17 -0.002576104144 6.162872838e-12)
(2.691661872e-17 -0.003401591616 8.18693274e-12)
(3.308480767e-17 -0.004199287721 1.018489498e-11)
(3.894276461e-17 -0.004963080098 1.214999054e-11)
(4.448989537e-17 -0.005687394083 1.407526417e-11)
(4.975974342e-17 -0.006367284925 1.595351474e-11)
(5.481543161e-17 -0.006998520855 1.777723795e-11)
(5.976117835e-17 -0.007577654743 1.953855769e-11)
(6.47364772e-17 -0.008102087872 2.122915797e-11)
(6.99092105e-17 -0.008570120424 2.284023576e-11)
(7.548301387e-17 -0.008980988813 2.436246032e-11)
(8.16826009e-17 -0.009334884506 2.578594557e-11)
(8.875163272e-17 -0.009632951493 2.710025079e-11)
(9.691721952e-17 -0.009877258753 2.829443593e-11)
(1.064345148e-16 -0.01007074059 2.935711211e-11)
(1.175222495e-16 -0.01021710196 3.027651886e-11)
(1.303289472e-16 -0.01032068284 3.104070446e-11)
(1.449625344e-16 -0.01038627866 3.163769805e-11)
(1.614485008e-16 -0.010418917 3.205568265e-11)
(1.797327282e-16 -0.01042359768 3.228319484e-11)
(1.996587469e-16 -0.01040500023 3.230933545e-11)
(2.209885503e-16 -0.01036717111 3.212389441e-11)
(2.433746949e-16 -0.01031322261 3.171752105e-11)
(2.664335034e-16 -0.01024505425 3.1081802e-11)
(2.897030168e-16 -0.01016313218 3.02093143e-11)
(3.127602195e-16 -0.01006635555 2.909362555e-11)
(3.351720504e-16 -0.009952037903 2.772930013e-11)
(3.56426081e-16 -0.009816022654 2.611217767e-11)
(3.76355541e-16 -0.009652949888 2.423949319e-11)
(3.948889393e-16 -0.009456663624 2.211003785e-11)
(4.116945855e-16 -0.009220752123 1.972531766e-11)
(4.26633346e-16 -0.008939171069 1.709098868e-11)
(4.39511169e-16 -0.008606911159 1.421855233e-11)
(4.500699517e-16 -0.008220630842 1.112782477e-11)
(4.579080254e-16 -0.00777919602 7.849934888e-12)
(4.625003137e-16 -0.007284048635 4.430703155e-12)
(4.632103632e-16 -0.006739357127 9.340437682e-13)
(4.593891404e-16 -0.006151915142 -2.555024888e-12)
(4.505049147e-16 -0.005530781577 -5.928516026e-12)
(4.362893824e-16 -0.004886700521 -9.0553942e-12)
(4.169101792e-16 -0.004231350155 -1.178432628e-11)
(3.930190431e-16 -0.003576523438 -1.394983493e-11)
(3.65811396e-16 -0.002933312328 -1.538274859e-11)
(3.368296221e-16 -0.002311411499 -1.592486366e-11)
(3.078138767e-16 -0.001718596985 -1.544775804e-11)
(2.802922308e-16 -0.001160443332 -1.387426e-11)
(2.553371392e-16 -0.0006402828004 -1.120066844e-11)
(2.332085032e-16 -0.0001594015393 -7.51640967e-12)
(2.13283928e-16 0.0002825412483 -3.017136684e-12)
(1.940780419e-16 0.0006868676858 1.992835168e-12)
(1.735923759e-16 0.001054890355 7.112683289e-12)
(1.498406626e-16 0.001386243403 1.187223554e-11)
(1.216797828e-16 0.001675691762 1.577026454e-11)
(8.969069756e-17 0.001906476227 1.830754914e-11)
(5.704841182e-17 0.002035837681 1.898001843e-11)
(2.938386228e-17 0.001962924155 1.715719591e-11)
(1.196180518e-17 0.001457427053 1.169770381e-11)
)
;

boundaryField
{
    left
    {
        type            calculated;
        value           uniform (-1.607559497e-30 1.528803872e-34 -1.284588216e-32);
    }
    right
    {
        type            calculated;
        value           uniform (-1.568763686e-31 4.461272269e-30 -1.696403365e-32);
    }
    beam
    {
        type            empty;
        value           nonuniform List<vector> 0();
    }
}


// ************************************************************************* //
