/*--------------------------------*- C++ -*----------------------------------*\
| =========                 |                                                 |
| \\      /  F ield         | OpenFOAM: The Open Source CFD Toolbox           |
|  \\    /   O peration     | Version:  2312                                  |
|   \\  /    A nd           | Website:  www.openfoam.com                      |
|    \\/     M anipulation  |                                                 |
\*---------------------------------------------------------------------------*/
FoamFile
{
    version     2.0;
    format      ascii;
    arch        "LSB;label=32;scalar=64";
    class       surfaceVectorField;
    location    "0.17/beam";
    object      M;
}
// * * * * * * * * * * * * * * * * * * * * * * * * * * * * * * * * * * * * * //

dimensions      [1 2 -2 0 0 0 0];

oriented        oriented;

internalField   nonuniform List<vector> 
59
(
(8.015988534e-17 -5.237493069e-07 1.242003517e-15)
(1.600253037e-16 -1.043136902e-06 2.480127221e-15)
(2.393005051e-16 -1.553869954e-06 3.710471043e-15)
(3.176875533e-16 -2.05179244e-06 4.92909956e-15)
(3.948852389e-16 -2.532951563e-06 6.132020822e-15)
(4.7058797e-16 -2.993660432e-06 7.315160939e-15)
(5.444846868e-16 -3.430556487e-06 8.474333964e-15)
(6.162578378e-16 -3.840657125e-06 9.605205942e-15)
(6.855828431e-16 -4.221409801e-06 1.070326035e-14)
(7.521275975e-16 -4.570735254e-06 1.176375664e-14)
(8.155524837e-16 -4.887065975e-06 1.278168919e-14)
(8.755115164e-16 -5.169376658e-06 1.37517587e-14)
(9.316540963e-16 -5.417206718e-06 1.466834757e-14)
(9.836274421e-16 -5.630671646e-06 1.552550305e-14)
(1.031080066e-15 -5.810461479e-06 1.631693749e-14)
(1.073666904e-15 -5.957824198e-06 1.703606149e-14)
(1.111053847e-15 -6.074529736e-06 1.767601411e-14)
(1.142922389e-15 -6.162812863e-06 1.822970931e-14)
(1.168976422e-15 -6.225291402e-06 1.868994446e-14)
(1.188947194e-15 -6.264857882e-06 1.904950405e-14)
(1.202596385e-15 -6.284544868e-06 1.930126399e-14)
(1.20971797e-15 -6.287368191e-06 1.94383121e-14)
(1.210138163e-15 -6.276150471e-06 1.94540753e-14)
(1.203710622e-15 -6.253332472e-06 1.934239526e-14)
(1.190311555e-15 -6.220791492e-06 1.909763144e-14)
(1.169831124e-15 -6.17967329e-06 1.871470853e-14)
(1.142164138e-15 -6.130259044e-06 1.8189149e-14)
(1.107200759e-15 -6.071884736e-06 1.751707357e-14)
(1.064820023e-15 -6.002929934e-06 1.669520536e-14)
(1.014895298e-15 -5.920887441e-06 1.572103772e-14)
(9.57300058e-16 -5.822524231e-06 1.459290661e-14)
(8.919202919e-16 -5.704127105e-06 1.331008705e-14)
(8.187001614e-16 -5.56182859e-06 1.187349072e-14)
(7.376986656e-16 -5.39198284e-06 1.028653e-14)
(6.491547938e-16 -5.191568314e-06 8.556138643e-15)
(5.535723645e-16 -4.958569435e-06 6.694258993e-15)
(4.518143691e-16 -4.692302131e-06 4.719647895e-15)
(3.451995128e-16 -4.39363616e-06 2.659912503e-15)
(2.355891871e-16 -4.065085868e-06 5.535605332e-16)
(1.25453219e-16 -3.710749087e-06 -1.548185008e-15)
(1.789556156e-17 -3.336090016e-06 -3.580261429e-15)
(-8.337312438e-17 -2.947589341e-06 -5.463716712e-15)
(-1.741385786e-16 -2.552291175e-06 -7.10736596e-15)
(-2.498701552e-16 -2.157308866e-06 -8.411498457e-15)
(-3.06010227e-16 -1.76933293e-06 -9.274174317e-15)
(-3.383591307e-16 -1.394211056e-06 -9.60006009e-15)
(-3.435529863e-16 -1.036633641e-06 -9.311766759e-15)
(-3.195975843e-16 -6.999631714e-07 -8.36278842e-15)
(-2.664140004e-16 -3.862096212e-07 -6.750894136e-15)
(-1.863174352e-16 -9.614877691e-08 -4.529974967e-15)
(-8.433252973e-17 1.704249254e-07 -1.817939026e-15)
(3.175630703e-17 4.143089719e-07 1.20182014e-15)
(1.517235643e-16 6.362950936e-07 4.287748363e-15)
(2.636146641e-16 8.361626132e-07 7.156496416e-15)
(3.547862249e-16 1.010753811e-06 9.505995053e-15)
(4.129259917e-16 1.149959769e-06 1.103537155e-14)
(4.263092125e-16 1.227988788e-06 1.144079898e-14)
(3.816805111e-16 1.18400837e-06 1.03421981e-14)
(2.566086552e-16 8.790995946e-07 7.051427923e-15)
)
;

boundaryField
{
    left
    {
        type            calculated;
        value           uniform (-1.93653066e-33 9.221503504e-38 1.041073356e-34);
    }
    right
    {
        type            calculated;
        value           uniform (-1.895152435e-34 2.690976975e-33 -2.143853582e-36);
    }
    beam
    {
        type            empty;
        value           nonuniform List<vector> 0();
    }
}


// ************************************************************************* //
