/*--------------------------------*- C++ -*----------------------------------*\
| =========                 |                                                 |
| \\      /  F ield         | OpenFOAM: The Open Source CFD Toolbox           |
|  \\    /   O peration     | Version:  2312                                  |
|   \\  /    A nd           | Website:  www.openfoam.com                      |
|    \\/     M anipulation  |                                                 |
\*---------------------------------------------------------------------------*/
FoamFile
{
    version     2.0;
    format      ascii;
    arch        "LSB;label=32;scalar=64";
    class       pointVectorField;
    location    "0.17/beam";
    object      pointW;
}
// * * * * * * * * * * * * * * * * * * * * * * * * * * * * * * * * * * * * * //

dimensions      [0 1 0 0 0 0 0];

internalField   nonuniform List<vector> 
1952
(
(-0.0002306857701 -1.898707632e-15 6.657527234e-06)
(-0.000226253143 -1.862225651e-15 6.529602848e-06)
(-0.0002131259693 -1.754239115e-15 6.15075626e-06)
(-0.0001918082972 -1.578598363e-15 5.535534168e-06)
(-0.0001631196381 -1.34267597e-15 4.707587437e-06)
(-0.0001281620932 -1.054711873e-15 3.698722404e-06)
(-8.827940716e-05 -7.264154556e-16 2.547719164e-06)
(-4.50045445e-05 -3.703634621e-16 1.298818651e-06)
(6.407905449e-14 0 -1.799819964e-15)
(4.500454463e-05 3.703634621e-16 -1.298818654e-06)
(8.827940728e-05 7.264154556e-16 -2.547719167e-06)
(0.0001281620934 1.054711873e-15 -3.698722407e-06)
(0.0001631196382 1.34267597e-15 -4.70758744e-06)
(0.0001918082973 1.578598363e-15 -5.53553417e-06)
(0.0002131259693 1.754239115e-15 -6.150756262e-06)
(0.0002262531431 1.862225651e-15 -6.529602848e-06)
(0.0002306857701 1.898707632e-15 -6.657527234e-06)
(0.000226253143 1.862225651e-15 -6.529602848e-06)
(0.0002131259693 1.754239115e-15 -6.15075626e-06)
(0.0001918082972 1.578598363e-15 -5.535534168e-06)
(0.0001631196381 1.34267597e-15 -4.707587437e-06)
(0.0001281620932 1.054711873e-15 -3.698722404e-06)
(8.827940716e-05 7.264154556e-16 -2.547719164e-06)
(4.50045445e-05 3.703634621e-16 -1.298818651e-06)
(-6.407903261e-14 0 1.799819332e-15)
(-4.500454463e-05 -3.703634621e-16 1.298818654e-06)
(-8.827940728e-05 -7.264154556e-16 2.547719167e-06)
(-0.0001281620934 -1.054711873e-15 3.698722407e-06)
(-0.0001631196382 -1.34267597e-15 4.70758744e-06)
(-0.0001918082973 -1.578598363e-15 5.53553417e-06)
(-0.0002131259693 -1.754239115e-15 6.150756262e-06)
(-0.0002262531431 -1.862225651e-15 6.529602848e-06)
(-0.0002518698445 7.101911768e-13 -0.002549355491)
(-0.0002474386924 7.102275582e-13 -0.00254948333)
(-0.0002343158867 7.103356531e-13 -0.002549861924)
(-0.0002130053081 7.105110771e-13 -0.002550476736)
(-0.0001843261951 7.107469994e-13 -0.002551304132)
(-0.0001493802823 7.110345299e-13 -0.002552312325)
(-0.0001095108672 7.113628263e-13 -0.002553462562)
(-6.625040418e-05 7.117180109e-13 -0.002554710631)
(-2.126083484e-05 7.120883744e-13 -0.002556008584)
(2.37287345e-05 7.124587378e-13 -0.002557306538)
(6.698919749e-05 7.128147898e-13 -0.002558554607)
(0.0001068586126 7.131430863e-13 -0.002559704844)
(0.0001418045254 7.134306167e-13 -0.002560713037)
(0.0001704836384 7.136665391e-13 -0.002561540432)
(0.000191794217 7.138415293e-13 -0.002562155245)
(0.0002049170226 7.139496242e-13 -0.002562533839)
(0.0002093481747 7.139861223e-13 -0.002562661678)
(0.0002049170226 7.139496242e-13 -0.002562533839)
(0.0001917942169 7.138415293e-13 -0.002562155245)
(0.0001704836383 7.136665391e-13 -0.002561540432)
(0.0001418045253 7.134306167e-13 -0.002560713037)
(0.0001068586125 7.131430863e-13 -0.002559704844)
(6.698919737e-05 7.128147898e-13 -0.002558554607)
(2.372873438e-05 7.124587378e-13 -0.002557306538)
(-2.126083497e-05 7.120883744e-13 -0.002556008584)
(-6.625040431e-05 7.117180109e-13 -0.002554710631)
(-0.0001095108673 7.113628263e-13 -0.002553462562)
(-0.0001493802824 7.110345299e-13 -0.002552312325)
(-0.0001843261952 7.107469994e-13 -0.002551304132)
(-0.0002130053082 7.105110771e-13 -0.002550476736)
(-0.0002343158868 7.103356531e-13 -0.002549861924)
(-0.0002474386924 7.102275582e-13 -0.00254948333)
(-0.0002728030322 1.425329872e-12 -0.00510367954)
(-0.0002683762926 1.425366227e-12 -0.005103807124)
(-0.0002552665547 1.425474105e-12 -0.005104184964)
(-0.0002339771974 1.425649095e-12 -0.005104798552)
(-0.0002053266434 1.425884584e-12 -0.005105624299)
(-0.0001704155301 1.426171681e-12 -0.005106630484)
(-0.0001305858173 1.42649911e-12 -0.005107778429)
(-8.736843349e-05 1.426853427e-12 -0.005109024011)
(-4.242366521e-05 1.427222923e-12 -0.005110319379)
(2.521103074e-06 1.427592419e-12 -0.005111614747)
(4.573848686e-05 1.427948471e-12 -0.005112860329)
(8.556819965e-05 1.4282759e-12 -0.005114008275)
(0.000120479313 1.428562997e-12 -0.005115014459)
(0.000149129867 1.428798486e-12 -0.005115840206)
(0.0001704192242 1.428973476e-12 -0.005116453794)
(0.0001835289621 1.42908092e-12 -0.005116831634)
(0.0001879557016 1.429117387e-12 -0.005116959218)
(0.0001835289621 1.42908092e-12 -0.005116831634)
(0.0001704192242 1.428973476e-12 -0.005116453794)
(0.0001491298669 1.428798486e-12 -0.005115840206)
(0.0001204793129 1.428562997e-12 -0.005115014459)
(8.556819954e-05 1.4282759e-12 -0.005114008275)
(4.573848674e-05 1.427948471e-12 -0.005112860329)
(2.521102947e-06 1.427592419e-12 -0.005111614747)
(-4.242366534e-05 1.427222923e-12 -0.005110319379)
(-8.736843362e-05 1.426853427e-12 -0.005109024011)
(-0.0001305858174 1.42649911e-12 -0.005107778429)
(-0.0001704155302 1.426171681e-12 -0.005106630484)
(-0.0002053266435 1.425884584e-12 -0.005105624299)
(-0.0002339771975 1.425649095e-12 -0.005104798552)
(-0.0002552665548 1.425474105e-12 -0.005104184964)
(-0.0002683762927 1.425366227e-12 -0.005103807124)
(-0.0002933902456 2.148551041e-12 -0.007654630797)
(-0.0002889708197 2.148587298e-12 -0.00765475796)
(-0.0002758827409 2.148694851e-12 -0.007655134551)
(-0.0002546285565 2.14886919e-12 -0.007655746111)
(-0.0002260253372 2.149103812e-12 -0.00765656913)
(-0.0001911719019 2.149390041e-12 -0.00765757199)
(-0.0001514079933 2.149716169e-12 -0.007658716142)
(-0.0001082620106 2.150069185e-12 -0.007659957609)
(-6.339149726e-05 2.150437814e-12 -0.007661248696)
(-1.852098396e-05 2.150806443e-12 -0.007662539784)
(2.462499873e-05 2.151161194e-12 -0.007663781251)
(6.438890733e-05 2.151487322e-12 -0.007664925403)
(9.924234264e-05 2.151773551e-12 -0.007665928263)
(0.000127845562 2.152008172e-12 -0.007666751281)
(0.0001490997463 2.152182512e-12 -0.007667362841)
(0.000162187825 2.152289848e-12 -0.007667739433)
(0.000166607251 2.152326102e-12 -0.007667866596)
(0.000162187825 2.152289848e-12 -0.007667739433)
(0.0001490997462 2.152182512e-12 -0.007667362841)
(0.0001278455619 2.152008172e-12 -0.007666751281)
(9.924234255e-05 2.151773551e-12 -0.007665928263)
(6.438890722e-05 2.151487322e-12 -0.007664925403)
(2.462499861e-05 2.151161194e-12 -0.007663781251)
(-1.852098408e-05 2.150806443e-12 -0.007662539784)
(-6.339149739e-05 2.150437814e-12 -0.007661248696)
(-0.0001082620107 2.150069185e-12 -0.007659957609)
(-0.0001514079934 2.149716169e-12 -0.007658716142)
(-0.000191171902 2.149390041e-12 -0.00765757199)
(-0.0002260253373 2.149103812e-12 -0.00765656913)
(-0.0002546285566 2.14886919e-12 -0.007655746111)
(-0.0002758827409 2.148694851e-12 -0.007655134551)
(-0.0002889708197 2.148587298e-12 -0.00765475796)
(-0.0003135396305 2.883862944e-12 -0.01020055333)
(-0.0003091303587 2.883899066e-12 -0.01020067991)
(-0.0002960723515 2.884005968e-12 -0.01020105477)
(-0.0002748670013 2.88417944e-12 -0.01020166352)
(-0.0002463295014 2.884413194e-12 -0.01020248276)
(-0.0002115561462 2.884697689e-12 -0.01020348101)
(-0.0001718836002 2.885022516e-12 -0.01020461991)
(-0.0001288367508 2.885374231e-12 -0.01020585567)
(-8.406933319e-05 2.885741125e-12 -0.01020714083)
(-3.930191554e-05 2.886108019e-12 -0.01020842599)
(3.744933829e-06 2.886460602e-12 -0.01020966175)
(4.341747984e-05 2.886785429e-12 -0.01021080065)
(7.8190835e-05 2.887069923e-12 -0.0102117989)
(0.0001067283348 2.887303677e-12 -0.01021261814)
(0.000127933685 2.887477583e-12 -0.01021322689)
(0.0001409916922 2.887584269e-12 -0.01021360175)
(0.000145400964 2.887620424e-12 -0.01021372833)
(0.0001409916922 2.887584269e-12 -0.01021360175)
(0.0001279336849 2.887477583e-12 -0.01021322689)
(0.0001067283348 2.887303677e-12 -0.01021261814)
(7.81908349e-05 2.887069923e-12 -0.0102117989)
(4.341747973e-05 2.886785429e-12 -0.01021080065)
(3.744933705e-06 2.886460602e-12 -0.01020966175)
(-3.930191567e-05 2.886108019e-12 -0.01020842599)
(-8.406933333e-05 2.885741125e-12 -0.01020714083)
(-0.000128836751 2.885374231e-12 -0.01020585567)
(-0.0001718836003 2.885022516e-12 -0.01020461991)
(-0.0002115561464 2.884697689e-12 -0.01020348101)
(-0.0002463295015 2.884413194e-12 -0.01020248276)
(-0.0002748670013 2.88417944e-12 -0.01020166352)
(-0.0002960723515 2.884005968e-12 -0.01020105477)
(-0.0003091303588 2.883899066e-12 -0.01020067991)
(-0.0003331634613 3.635235586e-12 -0.01273983255)
(-0.0003287671011 3.635271446e-12 -0.01273995838)
(-0.0003157473313 3.635377589e-12 -0.01274033105)
(-0.0002946040762 3.635550628e-12 -0.01274093624)
(-0.0002661501421 3.635782647e-12 -0.01274175068)
(-0.000231478613 3.636065841e-12 -0.01274274309)
(-0.0001919222392 3.636388499e-12 -0.01274387532)
(-0.0001490014429 3.63673848e-12 -0.01274510385)
(-0.0001043651167 3.637102772e-12 -0.01274638149)
(-5.972879051e-05 3.637467064e-12 -0.01274765912)
(-1.680799428e-05 3.637817911e-12 -0.01274888766)
(2.274837949e-05 3.63814057e-12 -0.01275001989)
(5.741990861e-05 3.638423764e-12 -0.0127510123)
(8.587384271e-05 3.638655783e-12 -0.01275182674)
(0.0001070170977 3.638827954e-12 -0.01275243193)
(0.0001200368675 3.638934314e-12 -0.0127528046)
(0.0001244332277 3.638970223e-12 -0.01275293043)
(0.0001200368675 3.638934314e-12 -0.0127528046)
(0.0001070170977 3.638827954e-12 -0.01275243193)
(8.587384264e-05 3.638655783e-12 -0.01275182674)
(5.741990851e-05 3.638423764e-12 -0.0127510123)
(2.274837938e-05 3.63814057e-12 -0.01275001989)
(-1.680799441e-05 3.637817911e-12 -0.01274888766)
(-5.972879064e-05 3.637467064e-12 -0.01274765912)
(-0.0001043651169 3.637102772e-12 -0.01274638149)
(-0.0001490014431 3.63673848e-12 -0.01274510385)
(-0.0001919222393 3.636388499e-12 -0.01274387532)
(-0.0002314786131 3.636065841e-12 -0.01274274309)
(-0.0002661501422 3.635782647e-12 -0.01274175068)
(-0.0002946040763 3.635550628e-12 -0.01274093624)
(-0.0003157473313 3.635377589e-12 -0.01274033105)
(-0.0003287671011 3.635271446e-12 -0.01273995838)
(-0.0003521789596 4.406587666e-12 -0.01527090796)
(-0.0003477981636 4.406623287e-12 -0.01527103291)
(-0.0003348244871 4.406728671e-12 -0.01527140294)
(-0.0003137560846 4.406900192e-12 -0.01527200385)
(-0.0002854028846 4.407130477e-12 -0.01527281253)
(-0.0002508541015 4.407411502e-12 -0.01527379792)
(-0.0002114377673 4.407731992e-12 -0.01527492214)
(-0.0001686689216 4.408078937e-12 -0.01527614198)
(-0.0001241906193 4.408440626e-12 -0.01527741058)
(-7.971231698e-05 4.408802316e-12 -0.01527867918)
(-3.694347127e-05 4.409150128e-12 -0.01527989902)
(2.472862899e-06 4.409470618e-12 -0.01528102324)
(3.7021646e-05 4.409751644e-12 -0.01528200863)
(6.537484595e-05 4.409981928e-12 -0.01528281731)
(8.644324846e-05 4.410153015e-12 -0.01528341822)
(9.941692495e-05 4.4102584e-12 -0.01528378825)
(0.0001037977209 4.410294036e-12 -0.0152839132)
(9.941692492e-05 4.4102584e-12 -0.01528378825)
(8.644324841e-05 4.410153015e-12 -0.01528341822)
(6.537484587e-05 4.409981928e-12 -0.01528281731)
(3.70216459e-05 4.409751644e-12 -0.01528200863)
(2.472862781e-06 4.409470618e-12 -0.01528102324)
(-3.69434714e-05 4.409150128e-12 -0.01527989902)
(-7.971231712e-05 4.408802316e-12 -0.01527867918)
(-0.0001241906194 4.408440626e-12 -0.01527741058)
(-0.0001686689217 4.408078937e-12 -0.01527614198)
(-0.0002114377674 4.407731992e-12 -0.01527492214)
(-0.0002508541016 4.407411502e-12 -0.01527379792)
(-0.0002854028847 4.407130477e-12 -0.01527281253)
(-0.0003137560847 4.406900192e-12 -0.01527200385)
(-0.0003348244872 4.406728671e-12 -0.01527140294)
(-0.0003477981636 4.406623287e-12 -0.01527103291)
(-0.0003705090158 5.201773257e-12 -0.01779228516)
(-0.0003661463122 5.201808493e-12 -0.01779240908)
(-0.0003532262158 5.201912902e-12 -0.01779277606)
(-0.000332244824 5.202082688e-12 -0.01779337201)
(-0.0003040087203 5.202311238e-12 -0.01779417402)
(-0.0002696026207 5.202589661e-12 -0.01779515128)
(-0.0002303490727 5.202907116e-12 -0.01779626623)
(-0.0001877568586 5.203251024e-12 -0.01779747601)
(-0.0001434622479 5.203609245e-12 -0.01779873414)
(-9.916763724e-05 5.203967465e-12 -0.01779999227)
(-5.657542322e-05 5.204312242e-12 -0.01780120205)
(-1.732187516e-05 5.204629696e-12 -0.017802317)
(1.708422441e-05 5.204908119e-12 -0.01780329426)
(4.532032806e-05 5.205136669e-12 -0.01780409627)
(6.630171986e-05 5.205306021e-12 -0.01780469222)
(7.922181617e-05 5.20541043e-12 -0.0178050592)
(8.35845198e-05 5.205445752e-12 -0.01780518311)
(7.922181614e-05 5.20541043e-12 -0.0178050592)
(6.63017198e-05 5.205306021e-12 -0.01780469222)
(4.532032798e-05 5.205136669e-12 -0.01780409627)
(1.708422431e-05 5.204908119e-12 -0.01780329426)
(-1.732187528e-05 5.204629696e-12 -0.017802317)
(-5.657542335e-05 5.204312242e-12 -0.01780120205)
(-9.916763739e-05 5.203967465e-12 -0.01779999227)
(-0.0001434622481 5.203609245e-12 -0.01779873414)
(-0.0001877568588 5.203251024e-12 -0.01779747601)
(-0.0002303490728 5.202907116e-12 -0.01779626623)
(-0.0002696026209 5.202589661e-12 -0.01779515128)
(-0.0003040087204 5.202311238e-12 -0.01779417402)
(-0.0003322448241 5.202082688e-12 -0.01779337201)
(-0.0003532262159 5.201912902e-12 -0.01779277606)
(-0.0003661463122 5.201808493e-12 -0.01779240908)
(-0.0003880827987 6.024568101e-12 -0.02030254666)
(-0.0003837405731 6.024603017e-12 -0.02030266941)
(-0.000370881122 6.024706341e-12 -0.02030303295)
(-0.0003499982142 6.02487461e-12 -0.02030362331)
(-0.0003218946473 6.025100124e-12 -0.02030441781)
(-0.0002876500456 6.025375511e-12 -0.02030538591)
(-0.0002485807487 6.025689496e-12 -0.02030649041)
(-0.0002061884572 6.026029502e-12 -0.02030768884)
(-0.0001621017599 6.026384253e-12 -0.02030893518)
(-0.0001180150625 6.026739004e-12 -0.02031018152)
(-7.562277098e-05 6.027079877e-12 -0.02031137996)
(-3.655347414e-05 6.027393862e-12 -0.02031248446)
(-2.30887248e-06 6.027669249e-12 -0.02031345256)
(2.579469445e-05 6.027894763e-12 -0.02031424705)
(4.667760223e-05 6.028062598e-12 -0.02031483742)
(5.953705323e-05 6.028166139e-12 -0.02031520096)
(6.387927887e-05 6.028200925e-12 -0.02031532371)
(5.95370532e-05 6.028166139e-12 -0.02031520096)
(4.667760217e-05 6.028062598e-12 -0.02031483742)
(2.579469436e-05 6.027894763e-12 -0.02031424705)
(-2.308872587e-06 6.027669249e-12 -0.02031345256)
(-3.655347426e-05 6.027393862e-12 -0.02031248446)
(-7.562277112e-05 6.027079877e-12 -0.02031137996)
(-0.0001180150626 6.026739004e-12 -0.02031018152)
(-0.00016210176 6.026384253e-12 -0.02030893518)
(-0.0002061884574 6.026029502e-12 -0.02030768884)
(-0.0002485807489 6.025689496e-12 -0.02030649041)
(-0.0002876500457 6.025375511e-12 -0.02030538591)
(-0.0003218946474 6.025100124e-12 -0.02030441781)
(-0.0003499982143 6.02487461e-12 -0.02030362331)
(-0.0003708811221 6.024706341e-12 -0.02030303295)
(-0.0003837405731 6.024603017e-12 -0.02030266941)
(-0.0004048362472 6.878655455e-12 -0.02280036154)
(-0.0004005167271 6.87869e-12 -0.02280048302)
(-0.0003877245186 6.878791807e-12 -0.02280084276)
(-0.0003669508082 6.878957907e-12 -0.02280142696)
(-0.0003389941956 6.879181252e-12 -0.02280221316)
(-0.0003049286601 6.879452737e-12 -0.02280317116)
(-0.0002660636578 6.879762818e-12 -0.02280426412)
(-0.0002238930369 6.880099788e-12 -0.02280545005)
(-0.0001800368702 6.880449335e-12 -0.02280668338)
(-0.0001361807036 6.880798882e-12 -0.02280791671)
(-9.401008271e-05 6.881135852e-12 -0.02280910264)
(-5.514508044e-05 6.881445934e-12 -0.02281019561)
(-2.107954488e-05 6.881717418e-12 -0.0228111536)
(6.877067612e-06 6.881940764e-12 -0.0228119398)
(2.765077801e-05 6.882105996e-12 -0.022812524)
(4.044298654e-05 6.882208236e-12 -0.02281288375)
(4.476250655e-05 6.882242619e-12 -0.02281300522)
(4.044298651e-05 6.882208236e-12 -0.02281288375)
(2.765077795e-05 6.882105996e-12 -0.022812524)
(6.877067525e-06 6.881940764e-12 -0.0228119398)
(-2.107954499e-05 6.881717418e-12 -0.0228111536)
(-5.514508057e-05 6.881445934e-12 -0.02281019561)
(-9.401008285e-05 6.881135852e-12 -0.02280910264)
(-0.0001361807038 6.880798882e-12 -0.02280791671)
(-0.0001800368704 6.880449335e-12 -0.02280668338)
(-0.000223893037 6.880099788e-12 -0.02280545005)
(-0.0002660636579 6.879762818e-12 -0.02280426412)
(-0.0003049286602 6.879452737e-12 -0.02280317116)
(-0.0003389941958 6.879181252e-12 -0.02280221316)
(-0.0003669508082 6.878957907e-12 -0.02280142696)
(-0.0003877245186 6.878791807e-12 -0.02280084276)
(-0.0004005167272 6.87869e-12 -0.02280048302)
(-0.0004207124288 7.767611303e-12 -0.02528449378)
(-0.000416417671 7.767645143e-12 -0.02528461387)
(-0.0004036987955 7.767745865e-12 -0.0252849695)
(-0.0003830441731 7.767909146e-12 -0.02528554701)
(-0.0003552478255 7.768129022e-12 -0.02528632422)
(-0.0003213775751 7.768397037e-12 -0.02528727125)
(-0.0002827353716 7.768702348e-12 -0.02528835171)
(-0.0002408064993 7.76903368e-12 -0.02528952407)
(-0.0001972017439 7.76937889e-12 -0.02529074329)
(-0.0001535969886 7.7697241e-12 -0.02529196251)
(-0.0001116681163 7.770055432e-12 -0.02529313487)
(-7.302591281e-05 7.770360744e-12 -0.02529421533)
(-3.915566242e-05 7.770628759e-12 -0.02529516237)
(-1.13593149e-05 7.770848635e-12 -0.02529593957)
(9.295307467e-06 7.771011916e-12 -0.02529651709)
(2.201418297e-05 7.771112638e-12 -0.02529687272)
(2.630894076e-05 7.771146638e-12 -0.0252969928)
(2.201418294e-05 7.771112638e-12 -0.02529687272)
(9.295307405e-06 7.771011916e-12 -0.02529651709)
(-1.135931499e-05 7.770848635e-12 -0.02529593957)
(-3.915566254e-05 7.770628759e-12 -0.02529516237)
(-7.302591295e-05 7.770360744e-12 -0.02529421533)
(-0.0001116681165 7.770055432e-12 -0.02529313487)
(-0.0001535969887 7.7697241e-12 -0.02529196251)
(-0.0001972017441 7.76937889e-12 -0.02529074329)
(-0.0002408064995 7.76903368e-12 -0.02528952407)
(-0.0002827353717 7.768702348e-12 -0.02528835171)
(-0.0003213775752 7.768397037e-12 -0.02528727125)
(-0.0003552478256 7.768129022e-12 -0.02528632422)
(-0.0003830441731 7.767909146e-12 -0.02528554701)
(-0.0004036987955 7.767745865e-12 -0.0252849695)
(-0.000416417671 7.767645143e-12 -0.02528461387)
(-0.0004356617614 8.694888833e-12 -0.02775380893)
(-0.0004313936411 8.694922169e-12 -0.02775392753)
(-0.0004187536521 8.695021049e-12 -0.02775427876)
(-0.0003982271364 8.695181727e-12 -0.02775484913)
(-0.0003706031908 8.6953977e-12 -0.02775561671)
(-0.0003369430146 8.695661378e-12 -0.02775655203)
(-0.0002985404825 8.695961919e-12 -0.02775761912)
(-0.0002568716666 8.696288481e-12 -0.02775877697)
(-0.000213537362 8.696627619e-12 -0.0277599811)
(-0.0001702030574 8.696966758e-12 -0.02776118523)
(-0.0001285342416 8.697292452e-12 -0.02776234308)
(-9.013170953e-05 8.697592993e-12 -0.02776341017)
(-5.647153338e-05 8.697856671e-12 -0.02776434548)
(-2.884758778e-05 8.698072644e-12 -0.02776511307)
(-8.321072053e-06 8.698233757e-12 -0.02776568344)
(4.318916874e-06 8.698332636e-12 -0.02776603467)
(8.58703719e-06 8.698366009e-12 -0.02776615327)
(4.318916841e-06 8.698332636e-12 -0.02776603467)
(-8.321072118e-06 8.698233757e-12 -0.02776568344)
(-2.884758787e-05 8.698072644e-12 -0.02776511307)
(-5.64715335e-05 8.697856671e-12 -0.02776434548)
(-9.013170967e-05 8.697592993e-12 -0.02776341017)
(-0.0001285342418 8.697292452e-12 -0.02776234308)
(-0.0001702030576 8.696966758e-12 -0.02776118523)
(-0.0002135373622 8.696627619e-12 -0.0277599811)
(-0.0002568716668 8.696288481e-12 -0.02775877697)
(-0.0002985404826 8.695961919e-12 -0.02775761912)
(-0.0003369430147 8.695661378e-12 -0.02775655203)
(-0.0003706031909 8.6953977e-12 -0.02775561671)
(-0.0003982271365 8.695181727e-12 -0.02775484913)
(-0.0004187536522 8.695021049e-12 -0.02775427876)
(-0.0004313936411 8.694922169e-12 -0.02775392753)
(-0.0004496420981 9.663802122e-12 -0.03020727922)
(-0.0004454023018 9.663834945e-12 -0.03020739625)
(-0.0004328461943 9.663931981e-12 -0.03020774283)
(-0.0004124558964 9.664089841e-12 -0.03020830565)
(-0.0003850152687 9.664301911e-12 -0.03020906307)
(-0.000351578468 9.664560385e-12 -0.030209986)
(-0.0003134307826 9.664855288e-12 -0.03021103897)
(-0.0002720384891 9.665175778e-12 -0.03021218149)
(-0.0002289917594 9.665508845e-12 -0.03021336968)
(-0.0001859450297 9.665841912e-12 -0.03021455787)
(-0.0001445527362 9.666161534e-12 -0.03021570039)
(-0.0001064050508 9.666456437e-12 -0.03021675335)
(-7.296825017e-05 9.666714911e-12 -0.03021767629)
(-4.552762245e-05 9.666926981e-12 -0.03021843371)
(-2.513732468e-05 9.667084841e-12 -0.03021899653)
(-1.258121719e-05 9.667181877e-12 -0.03021934311)
(-8.341420947e-06 9.66721468e-12 -0.03021946014)
(-1.258121722e-05 9.667181877e-12 -0.03021934311)
(-2.513732475e-05 9.667084841e-12 -0.03021899653)
(-4.552762255e-05 9.666926981e-12 -0.03021843371)
(-7.29682503e-05 9.666714911e-12 -0.03021767629)
(-0.000106405051 9.666456437e-12 -0.03021675335)
(-0.0001445527364 9.666161534e-12 -0.03021570039)
(-0.0001859450299 9.665841912e-12 -0.03021455787)
(-0.0002289917596 9.665508845e-12 -0.03021336968)
(-0.0002720384893 9.665175778e-12 -0.03021218149)
(-0.0003134307828 9.664855288e-12 -0.03021103897)
(-0.0003515784682 9.664560385e-12 -0.030209986)
(-0.0003850152688 9.664301911e-12 -0.03020906307)
(-0.0004124558965 9.664089841e-12 -0.03020830565)
(-0.0004328461943 9.663931981e-12 -0.03020774283)
(-0.0004454023018 9.663834945e-12 -0.03020739625)
(-0.0004626186686 1.067750884e-11 -0.03264398689)
(-0.0004584086902 1.067754099e-11 -0.03264410228)
(-0.0004459408879 1.067763608e-11 -0.03264444399)
(-0.0004256939921 1.067779068e-11 -0.03264499892)
(-0.0003984463502 1.067799842e-11 -0.03264574572)
(-0.0003652447055 1.067825169e-11 -0.0326466557)
(-0.0003273653071 1.067854052e-11 -0.0326476939)
(-0.0002862641195 1.067885363e-11 -0.0326488204)
(-0.0002435201311 1.067917976e-11 -0.03264999192)
(-0.0002007761426 1.067950589e-11 -0.03265116344)
(-0.000159674955 1.067981901e-11 -0.03265228994)
(-0.0001217955566 1.068010784e-11 -0.03265332813)
(-8.859391203e-05 1.068036111e-11 -0.03265423812)
(-6.134627018e-05 1.068056884e-11 -0.03265498492)
(-4.109937435e-05 1.068072302e-11 -0.03265553984)
(-2.86315721e-05 1.06808181e-11 -0.03265588156)
(-2.442159372e-05 1.068085023e-11 -0.03265599695)
(-2.863157213e-05 1.06808181e-11 -0.03265588156)
(-4.109937443e-05 1.068072302e-11 -0.03265553984)
(-6.134627029e-05 1.068056884e-11 -0.03265498492)
(-8.859391217e-05 1.068036111e-11 -0.03265423812)
(-0.0001217955568 1.068010784e-11 -0.03265332813)
(-0.0001596749552 1.067981901e-11 -0.03265228994)
(-0.0002007761428 1.067950589e-11 -0.03265116344)
(-0.0002435201313 1.067917976e-11 -0.03264999192)
(-0.0002862641197 1.067885363e-11 -0.0326488204)
(-0.0003273653073 1.067854052e-11 -0.0326476939)
(-0.0003652447057 1.067825169e-11 -0.0326466557)
(-0.0003984463503 1.067799842e-11 -0.03264574572)
(-0.0004256939922 1.067779068e-11 -0.03264499892)
(-0.000445940888 1.067763608e-11 -0.03264444399)
(-0.0004584086902 1.067754099e-11 -0.03264410228)
(-0.000474563893 1.173899192e-11 -0.03506312568)
(-0.0004703850324 1.173902316e-11 -0.03506323937)
(-0.0004580093851 1.173911619e-11 -0.03506357605)
(-0.000437912143 1.173926668e-11 -0.0350641228)
(-0.0004108659004 1.173946964e-11 -0.03506485859)
(-0.0003779096637 1.173971727e-11 -0.03506575516)
(-0.0003403102486 1.173999916e-11 -0.03506677805)
(-0.0002995128579 1.174030578e-11 -0.03506788795)
(-0.0002570848091 1.17406241e-11 -0.0350690422)
(-0.0002146567602 1.174094242e-11 -0.03507019646)
(-0.0001738593695 1.174124816e-11 -0.03507130635)
(-0.0001362599544 1.174153006e-11 -0.03507232924)
(-0.0001033037178 1.174177769e-11 -0.03507322582)
(-7.625747521e-05 1.174198065e-11 -0.03507396161)
(-5.616023309e-05 1.174213157e-11 -0.03507450836)
(-4.378458583e-05 1.174222416e-11 -0.03507484504)
(-3.960572526e-05 1.174225553e-11 -0.03507495872)
(-4.378458587e-05 1.174222416e-11 -0.03507484504)
(-5.616023316e-05 1.174213157e-11 -0.03507450836)
(-7.625747532e-05 1.174198065e-11 -0.03507396161)
(-0.0001033037179 1.174177769e-11 -0.03507322582)
(-0.0001362599546 1.174153006e-11 -0.03507232924)
(-0.0001738593697 1.174124816e-11 -0.03507130635)
(-0.0002146567604 1.174094242e-11 -0.03507019646)
(-0.0002570848093 1.17406241e-11 -0.0350690422)
(-0.0002995128581 1.174030578e-11 -0.03506788795)
(-0.0003403102488 1.173999916e-11 -0.03506677805)
(-0.0003779096639 1.173971727e-11 -0.03506575516)
(-0.0004108659005 1.173946964e-11 -0.03506485859)
(-0.0004379121431 1.173926668e-11 -0.0350641228)
(-0.0004580093852 1.173911619e-11 -0.03506357605)
(-0.0004703850325 1.173902316e-11 -0.03506323937)
(-0.000485457061 1.285104012e-11 -0.03746400051)
(-0.0004813104265 1.285107069e-11 -0.03746411245)
(-0.0004690302167 1.285116111e-11 -0.03746444395)
(-0.0004490879588 1.285130769e-11 -0.03746498229)
(-0.0004222502891 1.285150545e-11 -0.03746570677)
(-0.0003895482015 1.285174658e-11 -0.03746658956)
(-0.0003522387424 1.28520211e-11 -0.03746759673)
(-0.0003117559696 1.285231904e-11 -0.03746868955)
(-0.0002696551138 1.285262955e-11 -0.03746982606)
(-0.000227554258 1.285294007e-11 -0.03747096257)
(-0.0001870714852 1.285323801e-11 -0.0374720554)
(-0.0001497620261 1.285351253e-11 -0.03747306256)
(-0.0001170599385 1.285375365e-11 -0.03747394535)
(-9.022226891e-05 1.285395141e-11 -0.03747466983)
(-7.0280011e-05 1.285409843e-11 -0.03747520817)
(-5.799980122e-05 1.285418885e-11 -0.03747553968)
(-5.385316683e-05 1.285421934e-11 -0.03747565161)
(-5.799980126e-05 1.285418885e-11 -0.03747553968)
(-7.028001108e-05 1.285409843e-11 -0.03747520817)
(-9.022226903e-05 1.285395141e-11 -0.03747466983)
(-0.0001170599387 1.285375365e-11 -0.03747394535)
(-0.0001497620263 1.285351253e-11 -0.03747306256)
(-0.0001870714854 1.285323801e-11 -0.0374720554)
(-0.0002275542582 1.285294007e-11 -0.03747096257)
(-0.000269655114 1.285262955e-11 -0.03746982606)
(-0.0003117559698 1.285231904e-11 -0.03746868955)
(-0.0003522387426 1.28520211e-11 -0.03746759673)
(-0.0003895482017 1.285174658e-11 -0.03746658956)
(-0.0004222502893 1.285150545e-11 -0.03746570677)
(-0.0004490879589 1.285130769e-11 -0.03746498229)
(-0.0004690302168 1.285116111e-11 -0.03746444395)
(-0.0004813104266 1.285107069e-11 -0.03746411245)
(-0.0004952839017 1.401622765e-11 -0.03984602522)
(-0.0004911704157 1.401625734e-11 -0.03984613538)
(-0.0004789883746 1.401634516e-11 -0.0398464616)
(-0.0004592055362 1.401648806e-11 -0.03984699136)
(-0.0004325824084 1.401667974e-11 -0.03984770429)
(-0.0004001417432 1.401691393e-11 -0.03984857301)
(-0.000363130538 1.401718065e-11 -0.03984956413)
(-0.0003229713868 1.401747034e-11 -0.03985063954)
(-0.0002812070876 1.401777132e-11 -0.03985175794)
(-0.0002394427885 1.401807229e-11 -0.03985287634)
(-0.0001992836373 1.401836286e-11 -0.03985395175)
(-0.0001622724321 1.401862957e-11 -0.03985494286)
(-0.0001298317669 1.401886376e-11 -0.03985581159)
(-0.0001032086391 1.401905545e-11 -0.03985652452)
(-8.342580079e-05 1.401919835e-11 -0.03985705428)
(-7.124375971e-05 1.401928617e-11 -0.0398573805)
(-6.713027375e-05 1.401931591e-11 -0.03985749066)
(-7.124375975e-05 1.401928617e-11 -0.0398573805)
(-8.342580087e-05 1.401919835e-11 -0.03985705428)
(-0.0001032086393 1.401905545e-11 -0.03985652452)
(-0.0001298317671 1.401886376e-11 -0.03985581159)
(-0.0001622724323 1.401862957e-11 -0.03985494286)
(-0.0001992836375 1.401836286e-11 -0.03985395175)
(-0.0002394427887 1.401807229e-11 -0.03985287634)
(-0.0002812070878 1.401777132e-11 -0.03985175794)
(-0.000322971387 1.401747034e-11 -0.03985063954)
(-0.0003631305382 1.401718065e-11 -0.03984956413)
(-0.0004001417434 1.401691393e-11 -0.03984857301)
(-0.0004325824086 1.401667974e-11 -0.03984770429)
(-0.0004592055363 1.401648806e-11 -0.03984699136)
(-0.0004789883747 1.401634516e-11 -0.0398464616)
(-0.0004911704158 1.401625734e-11 -0.03984613538)
(-0.0005040360507 1.523689264e-11 -0.04220871861)
(-0.0004999564578 1.523692132e-11 -0.04220882696)
(-0.0004878747905 1.523700653e-11 -0.04220914782)
(-0.0004682549527 1.523714445e-11 -0.04220966888)
(-0.000441851186 1.523733049e-11 -0.04221037011)
(-0.0004096778154 1.523755688e-11 -0.04221122456)
(-0.0003729715638 1.523781535e-11 -0.0422121994)
(-0.0003331433037 1.523809637e-11 -0.04221325715)
(-0.0002917231212 1.523838781e-11 -0.04221435718)
(-0.0002503029388 1.523867924e-11 -0.04221545721)
(-0.0002104746786 1.523896027e-11 -0.04221651496)
(-0.0001737684271 1.523921874e-11 -0.0422174898)
(-0.0001415950565 1.523944512e-11 -0.04221834426)
(-0.0001151912899 1.523963117e-11 -0.04221904548)
(-9.55714521e-05 1.523976952e-11 -0.04221956654)
(-8.348978488e-05 1.523985473e-11 -0.04221988741)
(-7.941019196e-05 1.523988348e-11 -0.04221999575)
(-8.348978492e-05 1.523985473e-11 -0.04221988741)
(-9.557145219e-05 1.523976952e-11 -0.04221956654)
(-0.00011519129 1.523963117e-11 -0.04221904548)
(-0.0001415950567 1.523944512e-11 -0.04221834426)
(-0.0001737684273 1.523921874e-11 -0.0422174898)
(-0.0002104746788 1.523896027e-11 -0.04221651496)
(-0.000250302939 1.523867924e-11 -0.04221545721)
(-0.0002917231215 1.523838781e-11 -0.04221435718)
(-0.0003331433039 1.523809637e-11 -0.04221325715)
(-0.000372971564 1.523781535e-11 -0.0422121994)
(-0.0004096778156 1.523755688e-11 -0.04221122456)
(-0.0004418511861 1.523733049e-11 -0.04221037011)
(-0.0004682549528 1.523714445e-11 -0.04220966888)
(-0.0004878747906 1.523700653e-11 -0.04220914782)
(-0.0004999564578 1.523692132e-11 -0.04220882696)
(-0.000511710439 1.651511475e-11 -0.04455169872)
(-0.0005076653174 1.651514255e-11 -0.04455180524)
(-0.0004956857364 1.651522473e-11 -0.0445521207)
(-0.00047623168 1.651535809e-11 -0.04455263299)
(-0.0004500510168 1.651553764e-11 -0.04455332241)
(-0.0004181495011 1.651575664e-11 -0.04455416247)
(-0.0003817534057 1.651600601e-11 -0.0445551209)
(-0.0003422616819 1.651627619e-11 -0.04455616084)
(-0.0003011914869 1.651655809e-11 -0.04455724234)