/*--------------------------------*- C++ -*----------------------------------*\
| =========                 |                                                 |
| \\      /  F ield         | OpenFOAM: The Open Source CFD Toolbox           |
|  \\    /   O peration     | Version:  2312                                  |
|   \\  /    A nd           | Website:  www.openfoam.com                      |
|    \\/     M anipulation  |                                                 |
\*---------------------------------------------------------------------------*/
FoamFile
{
    version     2.0;
    format      ascii;
    arch        "LSB;label=32;scalar=64";
    class       surfaceVectorField;
    location    "0.17/beam";
    object      Q;
}
// * * * * * * * * * * * * * * * * * * * * * * * * * * * * * * * * * * * * * //

dimensions      [1 1 -2 0 0 0 0];

oriented        oriented;

internalField   nonuniform List<vector> 
59
(
(0.1784867434 2.844075269e-12 -0.01031911684)
(0.1784872941 2.868679528e-12 -0.01030870263)
(0.1784882056 2.909601976e-12 -0.01029144297)
(0.1784894684 2.966715303e-12 -0.01026748227)
(0.1784910696 3.039840559e-12 -0.01023701948)
(0.178492993 3.128746334e-12 -0.01020030499)
(0.1784952194 3.233147583e-12 -0.01015763663)
(0.1784977268 3.35270401e-12 -0.01010935498)
(0.1785004912 3.487017953e-12 -0.01005583793)
(0.1785034864 3.635631716e-12 -0.009997494642)
(0.1785066851 3.798024331e-12 -0.009934758956)
(0.1785100591 3.973607777e-12 -0.009868082301)
(0.1785135795 4.161722722e-12 -0.00979792624)
(0.178517218 4.361633926e-12 -0.009724754746)
(0.1785209464 4.572525479e-12 -0.00964902634)
(0.1785247379 4.79349613e-12 -0.0095711863)
(0.1785285674 5.023554988e-12 -0.00949165912)
(0.1785324116 5.261617909e-12 -0.009410841527)
(0.1785362497 5.506504904e-12 -0.009329096351)
(0.1785400637 5.756938871e-12 -0.009246747616)
(0.1785438385 6.011545885e-12 -0.009164077251)
(0.178547562 6.268857232e-12 -0.009081323782)
(0.1785512249 6.527283938e-12 -0.00899869271)
(0.1785548224 6.785268458e-12 -0.008916313531)
(0.1785583493 7.040970171e-12 -0.008834348618)
(0.178561806 7.292709428e-12 -0.008752862856)
(0.1785651911 7.538514447e-12 -0.008671983151)
(0.1785685075 7.776583352e-12 -0.008591764484)
(0.1785717548 8.004848478e-12 -0.008512350216)
(0.1785749353 8.221412751e-12 -0.008433841247)
(0.1785780471 8.424145292e-12 -0.008356452075)
(0.1785810888 8.611080317e-12 -0.008280378839)
(0.1785840542 8.780063944e-12 -0.008205944746)
(0.1785869371 8.929110321e-12 -0.008133463231)
(0.1785897264 9.056128191e-12 -0.008063366845)
(0.1785924112 9.159237369e-12 -0.007996064944)
(0.1785949768 9.23661118e-12 -0.007932053002)
(0.1785974103 9.286761434e-12 -0.007871769626)
(0.1785996968 9.308531075e-12 -0.00781568774)
(0.1786018252 9.301349154e-12 -0.007764181161)
(0.1786037845 9.265385902e-12 -0.007717603054)
(0.178605569 9.201753076e-12 -0.007676174677)
(0.1786071747 9.112782938e-12 -0.007640057365)
(0.1786086034 9.002103847e-12 -0.007609273153)
(0.1786098589 8.874929637e-12 -0.007583773241)
(0.1786109499 8.737892554e-12 -0.007563392708)
(0.1786118868 8.599158103e-12 -0.007547912709)
(0.1786126828 8.467887372e-12 -0.007537043189)
(0.1786133514 8.353980454e-12 -0.007530471914)
(0.1786139073 8.267125326e-12 -0.007527864724)
(0.1786143644 8.216092247e-12 -0.007528894971)
(0.1786147359 8.207554405e-12 -0.007533252395)
(0.1786150338 8.245150122e-12 -0.007540651117)
(0.1786152686 8.32860948e-12 -0.007550843342)
(0.1786154491 8.453200113e-12 -0.007563608991)
(0.1786155828 8.60997858e-12 -0.007578774691)
(0.1786156755 8.786439718e-12 -0.00759619008)
(0.1786157315 8.968505907e-12 -0.007615753728)
(0.178615754 9.142656901e-12 -0.007637380113)
)
;

boundaryField
{
    left
    {
        type            calculated;
        value           uniform (-0.1784865592 -9.647655343e-12 0.01032259801);
    }
    right
    {
        type            calculated;
        value           uniform (0.1786157446 2.488051981e-12 -0.007661033569);
    }
    beam
    {
        type            empty;
        value           nonuniform List<vector> 0();
    }
}


// ************************************************************************* //
