/*--------------------------------*- C++ -*----------------------------------*\
| =========                 |                                                 |
| \\      /  F ield         | OpenFOAM: The Open Source CFD Toolbox           |
|  \\    /   O peration     | Version:  2312                                  |
|   \\  /    A nd           | Website:  www.openfoam.com                      |
|    \\/     M anipulation  |                                                 |
\*---------------------------------------------------------------------------*/
FoamFile
{
    version     2.0;
    format      ascii;
    arch        "LSB;label=32;scalar=64";
    class       volVectorField;
    location    "0.17/beam";
    object      Theta;
}
// * * * * * * * * * * * * * * * * * * * * * * * * * * * * * * * * * * * * * //

dimensions      [0 0 0 0 0 0 0];

internalField   nonuniform List<vector> 
60
(
(-3.659758342e-13 0.05766064438 1.609539032e-11)
(-3.639309275e-13 0.05762449098 1.618785754e-11)
(-3.59844683e-13 0.05754884271 1.637192919e-11)
(-3.537258664e-13 0.05743652598 1.664700598e-11)
(-3.455882007e-13 0.05728716991 1.70121878e-11)
(-3.354510315e-13 0.0571027896 1.746627025e-11)
(-3.233402953e-13 0.05688441659 1.800774007e-11)
(-3.092898763e-13 0.05663407977 1.863476504e-11)
(-2.933428855e-13 0.05635357784 1.934518838e-11)
(-2.755536032e-13 0.05604516561 2.013651235e-11)
(-2.559894027e-13 0.05571108968 2.10058844e-11)
(-2.347325261e-13 0.05535380797 2.195008123e-11)
(-2.11882205e-13 0.05497579604 2.296548745e-11)
(-1.875564792e-13 0.05457959774 2.40480729e-11)
(-1.618936276e-13 0.05416772782 2.519337126e-11)
(-1.350531889e-13 0.05374266272 2.63964576e-11)
(-1.07216355e-13 0.05330677987 2.765193363e-11)
(-7.858599021e-14 0.05286233124 2.895388743e-11)
(-4.938502175e-14 0.05241140209 3.029591742e-11)
(-1.985519692e-14 0.05195588711 3.167109716e-11)
(9.74588692e-15 0.05149746775 3.307198782e-11)
(3.914819694e-14 0.0510376034 3.449064918e-11)
(6.807168776e-14 0.05057755775 3.591857213e-11)
(9.623735564e-14 0.05011830955 3.734703766e-11)
(1.233632726e-13 0.04966073622 3.876666023e-11)
(1.491752518e-13 0.04920555146 4.016775838e-11)
(1.734124235e-13 0.04875338486 4.154030817e-11)
(1.958308626e-13 0.04830484536 4.287401061e-11)
(2.162105698e-13 0.04786059064 4.415829555e-11)
(2.343583818e-13 0.04742139734 4.538243557e-11)
(2.501167525e-13 0.04698822611 4.653555558e-11)
(2.633548842e-13 0.04656227492 4.760660729e-11)
(2.739883318e-13 0.04614501431 4.858460837e-11)
(2.81968127e-13 0.04573819869 4.945866764e-11)
(2.872864551e-13 0.04534385006 5.021812203e-11)
(2.899736505e-13 0.04496421225 5.085283605e-11)
(2.900991212e-13 0.04460167699 5.135352124e-11)
(2.877661069e-13 0.04425868627 5.171223876e-11)
(2.831098894e-13 0.04393761817 5.192301903e-11)
(2.762891593e-13 0.04364066634 5.198265159e-11)
(2.674792153e-13 0.04336972342 5.189159728e-11)
(2.56856257e-13 0.04312628132 5.165499251e-11)
(2.445796108e-13 0.04291135569 5.128365368e-11)
(2.307607164e-13 0.04272544607 5.079496297e-11)
(2.154238252e-13 0.04256852829 5.021347841e-11)
(1.984475137e-13 0.04244008971 4.957107475e-11)
(1.794929508e-13 0.04233918405 4.890642481e-11)
(1.579134953e-13 0.04226452816 4.82636331e-11)
(1.326626694e-13 0.04221457968 4.768990835e-11)
(1.022159831e-13 0.04218766938 4.723225168e-11)
(6.456336447e-14 0.04218203662 4.693333155e-11)
(1.734327645e-14 0.04219599341 4.682690443e-11)
(-4.173787283e-14 0.04222781408 4.693343633e-11)
(-1.140148232e-13 0.04227599191 4.725685301e-11)
(-1.982164977e-13 0.0423387352 4.778355832e-11)
(-2.877293538e-13 0.04241446961 4.848496619e-11)
(-3.663634028e-13 0.04250012824 4.932441242e-11)
(-4.023814548e-13 0.04259200526 5.026827994e-11)
(-3.415599965e-13 0.04267983368 5.129841351e-11)
(-1.058223712e-13 0.04274665214 5.241692127e-11)
)
;

boundaryField
{
    left
    {
        type            momentBeamRotationNR;
        value           uniform (-3.659758342e-13 0.05766064438 1.609539032e-11);
        momentSeries    
{
        file            "$FOAM_CASE/constant/beam/timeVsMoment";
        outOfBounds     clamp;
}
        moment          uniform (0 0 0);
    }
    right
    {
        type            momentBeamRotationNR;
        value           uniform (-1.058223712e-13 0.04274665214 5.241692127e-11);
        momentSeries    
{
        file            "$FOAM_CASE/constant/beam/timeVsMoment";
        outOfBounds     clamp;
}
        moment          uniform (0 0 0);
    }
    beam
    {
        type            empty;
    }
}


// ************************************************************************* //
