/*--------------------------------*- C++ -*----------------------------------*\
| =========                 |                                                 |
| \\      /  F ield         | OpenFOAM: The Open Source CFD Toolbox           |
|  \\    /   O peration     | Version:  2312                                  |
|   \\  /    A nd           | Website:  www.openfoam.com                      |
|    \\/     M anipulation  |                                                 |
\*---------------------------------------------------------------------------*/
FoamFile
{
    version     2.0;
    format      ascii;
    arch        "LSB;label=32;scalar=64";
    class       volVectorField;
    location    "0.17/beam";
    object      W;
}
// * * * * * * * * * * * * * * * * * * * * * * * * * * * * * * * * * * * * * //

dimensions      [0 1 0 0 0 0 0];

internalField   nonuniform List<vector> 
60
(
(-1.064269991e-05 3.560381356e-13 -0.001278216958)
(-3.18789699e-05 1.068139164e-12 -0.003833800211)
(-5.296836065e-05 1.786308096e-12 -0.006386838548)
(-7.381463401e-05 2.514569046e-12 -0.008935658845)
(-9.432403251e-05 3.256914322e-12 -0.01147862282)
(-0.0001144062011 4.017291487e-12 -0.01401414016)
(-0.0001339750376 4.799590215e-12 -0.016540681)
(-0.0001529494584 5.607628794e-12 -0.01905678728)
(-0.0001712540615 6.445140231e-12 -0.02156108309)
(-0.0001888196792 7.315757844e-12 -0.02405228367)
(-0.0002055838089 8.223000097e-12 -0.02652920291)
(-0.0002214909154 9.170254745e-12 -0.02899075929)
(-0.0002364926036 1.016076206e-11 -0.03143598007)
(-0.0002505476587 1.119759702e-11 -0.03386400376)
(-0.0002636219596 1.228365043e-11 -0.03627408064)
(-0.0002756882682 1.342160902e-11 -0.03866557148)
(-0.0002867259073 1.461393454e-11 -0.0410379444)
(-0.0002967203354 1.586284158e-11 -0.04339076997)
(-0.0003056626386 1.717027499e-11 -0.04572371472)
(-0.0003135489542 1.853788675e-11 -0.04803653327)
(-0.0003203798532 1.996701242e-11 -0.05032905936)
(-0.0003261597031 2.145864778e-11 -0.05260119628)
(-0.0003308957731 2.301333821e-11 -0.05485277983)
(-0.0003345988321 2.463150073e-11 -0.05708407979)
(-0.0003372805601 2.631290519e-11 -0.05929501925)
(-0.0003389550026 2.805695631e-11 -0.06148569229)
(-0.0003396370838 2.986264514e-11 -0.06365621358)
(-0.0003393433429 3.172847761e-11 -0.06580673432)
(-0.000338091027 3.365251569e-11 -0.06793742472)
(-0.0003358990927 3.563231241e-11 -0.0700484957)
(-0.0003327876124 3.76649551e-11 -0.07214018781)
(-0.0003287789866 3.974700724e-11 -0.07421279813)
(-0.0003238975702 4.187455065e-11 -0.07626667425)
(-0.0003181709452 4.404314535e-11 -0.07830224362)
(-0.0003116295952 4.624787442e-11 -0.08032000909)
(-0.000304308025 4.848332608e-11 -0.08232057602)
(-0.000296244284 5.074365449e-11 -0.08430464468)
(-0.0002874807253 5.302260472e-11 -0.08627302988)
(-0.0002780632324 5.531360785e-11 -0.08822664611)
(-0.0002680414991 5.760987483e-11 -0.09016651581)
(-0.0002574679348 5.990455042e-11 -0.09209374577)
(-0.0002463974897 6.21909009e-11 -0.09400952345)
(-0.00023488636 6.446254422e-11 -0.09591508674)
(-0.0002229915197 6.671373741e-11 -0.09781171172)
(-0.0002107694473 6.893967175e-11 -0.09970068097)
(-0.0001982755974 7.113682162e-11 -0.1015832687)
(-0.0001855633825 7.330324176e-11 -0.1034607139)
(-0.0001726837921 7.543887507e-11 -0.1053342087)
(-0.0001596847805 7.754572713e-11 -0.1072048805)
(-0.0001466111344 7.962797207e-11 -0.1090737873)
(-0.000133504284 8.169184485e-11 -0.1109419101)
(-0.0001204023872 8.374538054e-11 -0.1128101537)
(-0.0001073404436 8.579791107e-11 -0.1146793481)
(-9.435042687e-05 8.785937794e-11 -0.1165502501)
(-8.146140437e-05 8.993948079e-11 -0.1184235458)
(-6.869924684e-05 9.204671129e-11 -0.1202998434)
(-5.608582302e-05 9.418739095e-11 -0.1221796537)
(-4.363638683e-05 9.636465902e-11 -0.1240633293)
(-3.135367903e-05 9.857739051e-11 -0.1259509267)
(-1.92138341e-05 1.008184315e-10 -0.1278418796)
)
;

boundaryField
{
    left
    {
        type            fixedValue;
        value           uniform (0 0 0);
    }
    right
    {
        type            fixedValue;
        value           uniform (-1.317371546e-05 1.019438529e-10 -0.12878818);
    }
    beam
    {
        type            empty;
    }
}


// ************************************************************************* //
