/*--------------------------------*- C++ -*----------------------------------*\
| =========                 |                                                 |
| \\      /  F ield         | foam-extend: Open Source CFD                    |
|  \\    /   O peration     | Version:     4.1                                |
|   \\  /    A nd           | Web:         http://www.foam-extend.org         |
|    \\/     M anipulation  |                                                 |
\*---------------------------------------------------------------------------*/
FoamFile
{
    version     2.0;
    format      ascii;
    class       pointVectorField;
    location    "0";
    object      pointW;
}
// * * * * * * * * * * * * * * * * * * * * * * * * * * * * * * * * * * * * * //

dimensions      [0 1 0 0 0 0 0];

internalField   nonuniform List<vector> 
1408
(
(0 0 0)
(0 0 0)
(0 0 0)
(0 0 0)
(0 0 0)
(0 0 0)
(0 0 0)
(0 0 0)
(0 0 0)
(0 0 0)
(0 0 0)
(0 0 0)
(0 0 0)
(0 0 0)
(0 0 0)
(0 0 0)
(0 0 0)
(0 0 0)
(0 0 0)
(0 0 0)
(0 0 0)
(0 0 0)
(0 0 0)
(0 0 0)
(0 0 0)
(0 0 0)
(0 0 0)
(0 0 0)
(0 0 0)
(0 0 0)
(0 0 0)
(0 0 0)
(0 0 0)
(0 0 0)
(0 0 0)
(0 0 0)
(0 0 0)
(0 0 0)
(0 0 0)
(0 0 0)
(0 0 0)
(0 0 0)
(0 0 0)
(0 0 0)
(0 0 0)
(0 0 0)
(0 0 0)
(0 0 0)
(0 0 0)
(0 0 0)
(0 0 0)
(0 0 0)
(0 0 0)
(0 0 0)
(0 0 0)
(0 0 0)
(0 0 0)
(0 0 0)
(0 0 0)
(0 0 0)
(0 0 0)
(0 0 0)
(0 0 0)
(0 0 0)
(0 0 0)
(0 0 0)
(0 0 0)
(0 0 0)
(0 0 0)
(0 0 0)
(0 0 0)
(0 0 0)
(0 0 0)
(0 0 0)
(0 0 0)
(0 0 0)
(0 0 0)
(0 0 0)
(0 0 0)
(0 0 0)
(0 0 0)
(0 0 0)
(0 0 0)
(0 0 0)
(0 0 0)
(0 0 0)
(0 0 0)
(0 0 0)
(0 0 0)
(0 0 0)
(0 0 0)
(0 0 0)
(0 0 0)
(0 0 0)
(0 0 0)
(0 0 0)
(0 0 0)
(0 0 0)
(0 0 0)
(0 0 0)
(0 0 0)
(0 0 0)
(0 0 0)
(0 0 0)
(0 0 0)
(0 0 0)
(0 0 0)
(0 0 0)
(0 0 0)
(0 0 0)
(0 0 0)
(0 0 0)
(0 0 0)
(0 0 0)
(0 0 0)
(0 0 0)
(0 0 0)
(0 0 0)
(0 0 0)
(0 0 0)
(0 0 0)
(0 0 0)
(0 0 0)
(0 0 0)
(0 0 0)
(0 0 0)
(0 0 0)
(0 0 0)
(0 0 0)
(0 0 0)
(0 0 0)
(0 0 0)
(0 0 0)
(0 0 0)
(0 0 0)
(0 0 0)
(0 0 0)
(0 0 0)
(0 0 0)
(0 0 0)
(0 0 0)
(0 0 0)
(0 0 0)
(0 0 0)
(0 0 0)
(0 0 0)
(0 0 0)
(0 0 0)
(0 0 0)
(0 0 0)
(0 0 0)
(0 0 0)
(0 0 0)
(0 0 0)
(0 0 0)
(0 0 0)
(0 0 0)
(0 0 0)
(0 0 0)
(0 0 0)
(0 0 0)
(0 0 0)
(0 0 0)
(0 0 0)
(0 0 0)
(0 0 0)
(0 0 0)
(0 0 0)
(0 0 0)
(0 0 0)
(0 0 0)
(0 0 0)
(0 0 0)
(0 0 0)
(0 0 0)
(0 0 0)
(0 0 0)
(0 0 0)
(0 0 0)
(0 0 0)
(0 0 0)
(0 0 0)
(0 0 0)
(0 0 0)
(0 0 0)
(0 0 0)
(0 0 0)
(0 0 0)
(0 0 0)
(0 0 0)
(0 0 0)
(0 0 0)
(0 0 0)
(0 0 0)
(0 0 0)
(0 0 0)
(0 0 0)
(0 0 0)
(0 0 0)
(0 0 0)
(0 0 0)
(0 0 0)
(0 0 0)
(0 0 0)
(0 0 0)
(0 0 0)
(0 0 0)
(0 0 0)
(0 0 0)
(0 0 0)
(0 0 0)
(0 0 0)
(0 0 0)
(0 0 0)
(0 0 0)
(0 0 0)
(0 0 0)
(0 0 0)
(0 0 0)
(0 0 0)
(0 0 0)
(0 0 0)
(0 0 0)
(0 0 0)
(0 0 0)
(0 0 0)
(0 0 0)
(0 0 0)
(0 0 0)
(0 0 0)
(0 0 0)
(0 0 0)
(0 0 0)
(0 0 0)
(0 0 0)
(0 0 0)
(0 0 0)
(0 0 0)
(0 0 0)
(0 0 0)
(0 0 0)
(0 0 0)
(0 0 0)
(0 0 0)
(0 0 0)
(0 0 0)
(0 0 0)
(0 0 0)
(0 0 0)
(0 0 0)
(0 0 0)
(0 0 0)
(0 0 0)
(0 0 0)
(0 0 0)
(0 0 0)
(0 0 0)
(0 0 0)
(0 0 0)
(0 0 0)
(0 0 0)
(0 0 0)
(0 0 0)
(0 0 0)
(0 0 0)
(0 0 0)
(0 0 0)
(0 0 0)
(0 0 0)
(0 0 0)
(0 0 0)
(0 0 0)
(0 0 0)
(0 0 0)
(0 0 0)
(0 0 0)
(0 0 0)
(0 0 0)
(0 0 0)
(0 0 0)
(0 0 0)
(0 0 0)
(0 0 0)
(0 0 0)
(0 0 0)
(0 0 0)
(0 0 0)
(0 0 0)
(0 0 0)
(0 0 0)
(0 0 0)
(0 0 0)
(0 0 0)
(0 0 0)
(0 0 0)
(0 0 0)
(0 0 0)
(0 0 0)
(0 0 0)
(0 0 0)
(0 0 0)
(0 0 0)
(0 0 0)
(0 0 0)
(0 0 0)
(0 0 0)
(0 0 0)
(0 0 0)
(0 0 0)
(0 0 0)
(0 0 0)
(0 0 0)
(0 0 0)
(0 0 0)
(0 0 0)
(0 0 0)
(0 0 0)
(0 0 0)
(0 0 0)
(0 0 0)
(0 0 0)
(0 0 0)
(0 0 0)
(0 0 0)
(0 0 0)
(0 0 0)
(0 0 0)
(0 0 0)
(0 0 0)
(0 0 0)
(0 0 0)
(0 0 0)
(0 0 0)
(0 0 0)
(0 0 0)
(0 0 0)
(0 0 0)
(0 0 0)
(0 0 0)
(0 0 0)
(0 0 0)
(0 0 0)
(0 0 0)
(0 0 0)
(0 0 0)
(0 0 0)
(0 0 0)
(0 0 0)
(0 0 0)
(0 0 0)
(0 0 0)
(0 0 0)
(0 0 0)
(0 0 0)
(0 0 0)
(0 0 0)
(0 0 0)
(0 0 0)
(0 0 0)
(0 0 0)
(0 0 0)
(0 0 0)
(0 0 0)
(0 0 0)
(0 0 0)
(0 0 0)
(0 0 0)
(0 0 0)
(0 0 0)
(0 0 0)
(0 0 0)
(0 0 0)
(0 0 0)
(0 0 0)
(0 0 0)
(0 0 0)
(0 0 0)
(0 0 0)
(0 0 0)
(0 0 0)
(0 0 0)
(0 0 0)
(0 0 0)
(0 0 0)
(0 0 0)
(0 0 0)
(0 0 0)
(0 0 0)
(0 0 0)
(0 0 0)
(0 0 0)
(0 0 0)
(0 0 0)
(0 0 0)
(0 0 0)
(0 0 0)
(0 0 0)
(0 0 0)
(0 0 0)
(0 0 0)
(0 0 0)
(0 0 0)
(0 0 0)
(0 0 0)
(0 0 0)
(0 0 0)
(0 0 0)
(0 0 0)
(0 0 0)
(0 0 0)
(0 0 0)
(0 0 0)
(0 0 0)
(0 0 0)
(0 0 0)
(0 0 0)
(0 0 0)
(0 0 0)
(0 0 0)
(0 0 0)
(0 0 0)
(0 0 0)
(0 0 0)
(0 0 0)
(0 0 0)
(0 0 0)
(0 0 0)
(0 0 0)
(0 0 0)
(0 0 0)
(0 0 0)
(0 0 0)
(0 0 0)
(0 0 0)
(0 0 0)
(0 0 0)
(0 0 0)
(0 0 0)
(0 0 0)
(0 0 0)
(0 0 0)
(0 0 0)
(0 0 0)
(0 0 0)
(0 0 0)
(0 0 0)
(0 0 0)
(0 0 0)
(0 0 0)
(0 0 0)
(0 0 0)
(0 0 0)
(0 0 0)
(0 0 0)
(0 0 0)
(0 0 0)
(0 0 0)
(0 0 0)
(0 0 0)
(0 0 0)
(0 0 0)
(0 0 0)
(0 0 0)
(0 0 0)
(0 0 0)
(0 0 0)
(0 0 0)
(0 0 0)
(0 0 0)
(0 0 0)
(0 0 0)
(0 0 0)
(0 0 0)
(0 0 0)
(0 0 0)
(0 0 0)
(0 0 0)
(0 0 0)
(0 0 0)
(0 0 0)
(0 0 0)
(0 0 0)
(0 0 0)
(0 0 0)
(0 0 0)
(0 0 0)
(0 0 0)
(0 0 0)
(0 0 0)
(0 0 0)
(0 0 0)
(0 0 0)
(0 0 0)
(0 0 0)
(0 0 0)
(0 0 0)
(0 0 0)
(0 0 0)
(0 0 0)
(0 0 0)
(0 0 0)
(0 0 0)
(0 0 0)
(0 0 0)
(0 0 0)
(0 0 0)
(0 0 0)
(0 0 0)
(0 0 0)
(0 0 0)
(0 0 0)
(0 0 0)
(0 0 0)
(0 0 0)
(0 0 0)
(0 0 0)
(0 0 0)
(0 0 0)
(0 0 0)
(0 0 0)
(0 0 0)
(0 0 0)
(0 0 0)
(0 0 0)
(0 0 0)
(0 0 0)
(0 0 0)
(0 0 0)
(0 0 0)
(0 0 0)
(0 0 0)
(0 0 0)
(0 0 0)
(0 0 0)
(0 0 0)
(0 0 0)
(0 0 0)
(0 0 0)
(0 0 0)
(0 0 0)
(0 0 0)
(0 0 0)
(0 0 0)
(0 0 0)
(0 0 0)
(0 0 0)
(0 0 0)
(0 0 0)
(0 0 0)
(0 0 0)
(0 0 0)
(0 0 0)
(0 0 0)
(0 0 0)
(0 0 0)
(0 0 0)
(0 0 0)
(0 0 0)
(0 0 0)
(0 0 0)
(0 0 0)
(0 0 0)
(0 0 0)
(0 0 0)
(0 0 0)
(0 0 0)
(0 0 0)
(0 0 0)
(0 0 0)
(0 0 0)
(0 0 0)
(0 0 0)
(0 0 0)
(0 0 0)
(0 0 0)
(0 0 0)
(0 0 0)
(0 0 0)
(0 0 0)
(0 0 0)
(0 0 0)
(0 0 0)
(0 0 0)
(0 0 0)
(0 0 0)
(0 0 0)
(0 0 0)
(0 0 0)
(0 0 0)
(0 0 0)
(0 0 0)
(0 0 0)
(0 0 0)
(0 0 0)
(0 0 0)
(0 0 0)
(0 0 0)
(0 0 0)
(0 0 0)
(0 0 0)
(0 0 0)
(0 0 0)
(0 0 0)
(0 0 0)
(0 0 0)
(0 0 0)
(0 0 0)
(0 0 0)
(0 0 0)
(0 0 0)
(0 0 0)
(0 0 0)
(0 0 0)
(0 0 0)
(0 0 0)
(0 0 0)
(0 0 0)
(0 0 0)
(0 0 0)
(0 0 0)
(0 0 0)
(0 0 0)
(0 0 0)
(0 0 0)
(0 9.62965e-35 0)
(0 0 0)
(0 0 0)
(0 0 0)
(0 0 0)
(0 0 0)
(0 0 0)
(0 0 0)
(0 0 0)
(0 0 0)
(0 0 0)
(0 0 0)
(0 0 0)
(0 0 0)
(0 0 0)
(0 0 0)
(0 0 0)
(0 0 0)
(0 0 0)
(0 0 0)
(0 0 0)
(0 0 0)
(0 0 0)
(0 0 0)
(0 0 0)
(0 0 0)
(0 0 0)
(0 0 0)
(0 0 0)
(0 0 0)
(0 0 0)
(0 0 0)
(0 0 0)
(0 0 0)
(0 0 0)
(0 0 0)
(0 0 0)
(0 0 0)
(0 0 0)
(0 0 0)
(0 0 0)
(0 0 0)
(0 0 0)
(0 0 0)
(0 0 0)
(0 0 0)
(0 0 0)
(0 0 0)
(0 0 0)
(0 0 0)
(0 0 0)
(0 0 0)
(0 0 0)
(0 0 0)
(0 0 0)
(0 0 0)
(0 0 0)
(0 0 0)
(0 0 0)
(0 0 0)
(0 0 0)
(0 0 0)
(0 0 0)
(0 0 0)
(0 0 0)
(0 0 0)
(0 0 0)
(0 0 0)
(0 0 0)
(0 0 0)
(0 0 0)
(0 0 0)
(0 0 0)
(0 0 0)
(0 0 0)
(0 0 0)
(0 0 0)
(0 0 0)
(0 0 0)
(0 0 0)
(0.245 0.01 0.255)
(0.245096 0.01 0.254904)
(0.245381 0.01 0.254619)
(0.245843 0.01 0.254157)
(0.246464 0.01 0.253536)
(0.247222 0.01 0.252778)
(0.248087 0.01 0.251913)
(0.249025 0.01 0.250975)
(0.25 0.01 0.25)
(0.250975 0.01 0.249025)
(0.251913 0.01 0.248087)
(0.252778 0.01 0.247222)
(0.253536 0.01 0.246464)
(0.254157 0.01 0.245843)
(0.254619 0.01 0.245381)
(0.254904 0.01 0.245096)
(0.255 0.01 0.245)
(0.254904 0.01 0.245096)
(0.254619 0.01 0.245381)
(0.254157 0.01 0.245843)
(0.253536 0.01 0.246464)
(0.252778 0.01 0.247222)
(0.251913 0.01 0.248087)
(0.250975 0.01 0.249025)
(0.25 0.01 0.25)
(0.249025 0.01 0.250975)
(0.248087 0.01 0.251913)
(0.247222 0.01 0.252778)
(0.246464 0.01 0.253536)
(0.245843 0.01 0.254157)
(0.245381 0.01 0.254619)
(0.245096 0.01 0.254904)
(0.22119 0.01 0.231191)
(0.221287 0.01 0.231094)
(0.221571 0.01 0.23081)
(0.222033 0.01 0.230348)
(0.222655 0.01 0.229726)
(0.223413 0.01 0.228968)
(0.224277 0.01 0.228104)
(0.225215 0.01 0.227166)
(0.22619 0.01 0.226191)
(0.227166 0.01 0.225215)
(0.228104 0.01 0.224277)
(0.228968 0.01 0.223413)
(0.229726 0.01 0.222655)
(0.230348 0.01 0.222033)
(0.23081 0.01 0.221571)
(0.231094 0.01 0.221287)
(0.23119 0.01 0.221191)
(0.231094 0.01 0.221287)
(0.23081 0.01 0.221571)
(0.230348 0.01 0.222033)
(0.229726 0.01 0.222655)
(0.228968 0.01 0.223413)
(0.228104 0.01 0.224277)
(0.227166 0.01 0.225215)
(0.22619 0.01 0.226191)
(0.225215 0.01 0.227166)
(0.224277 0.01 0.228104)
(0.223413 0.01 0.228968)
(0.222655 0.01 0.229726)
(0.222033 0.01 0.230348)
(0.221571 0.01 0.23081)
(0.221287 0.01 0.231094)
(0.197381 0.01 0.207381)
(0.197477 0.01 0.207285)
(0.197762 0.01 0.207)
(0.198224 0.01 0.206538)
(0.198845 0.01 0.205917)
(0.199603 0.01 0.205159)
(0.200468 0.01 0.204294)
(0.201406 0.01 0.203356)
(0.202381 0.01 0.202381)
(0.203356 0.01 0.201406)
(0.204294 0.01 0.200468)
(0.205159 0.01 0.199603)
(0.205917 0.01 0.198845)
(0.206538 0.01 0.198224)
(0.207 0.01 0.197762)
(0.207285 0.01 0.197477)
(0.207381 0.01 0.197381)
(0.207285 0.01 0.197477)
(0.207 0.01 0.197762)
(0.206538 0.01 0.198224)
(0.205917 0.01 0.198845)
(0.205159 0.01 0.199603)
(0.204294 0.01 0.200468)
(0.203356 0.01 0.201406)
(0.202381 0.01 0.202381)
(0.201406 0.01 0.203356)
(0.200468 0.01 0.204294)
(0.199603 0.01 0.205159)
(0.198845 0.01 0.205917)
(0.198224 0.01 0.206538)
(0.197762 0.01 0.207)
(0.197477 0.01 0.207285)
(0.173571 0.01 0.183571)
(0.173667 0.01 0.183475)
(0.173952 0.01 0.183191)
(0.174414 0.01 0.182729)
(0.175036 0.01 0.182107)
(0.175794 0.01 0.181349)
(0.176658 0.01 0.180485)
(0.177596 0.01 0.179547)
(0.178571 0.01 0.178571)
(0.179547 0.01 0.177596)
(0.180485 0.01 0.176658)
(0.181349 0.01 0.175794)
(0.182107 0.01 0.175036)
(0.182729 0.01 0.174414)
(0.183191 0.01 0.173952)
(0.183475 0.01 0.173667)
(0.183571 0.01 0.173571)
(0.183475 0.01 0.173667)
(0.183191 0.01 0.173952)
(0.182729 0.01 0.174414)
(0.182107 0.01 0.175036)
(0.181349 0.01 0.175794)
(0.180485 0.01 0.176658)
(0.179547 0.01 0.177596)
(0.178571 0.01 0.178571)
(0.177596 0.01 0.179547)
(0.176658 0.01 0.180485)
(0.175794 0.01 0.181349)
(0.175036 0.01 0.182107)
(0.174414 0.01 0.182729)
(0.173952 0.01 0.183191)
(0.173667 0.01 0.183475)
(0.149762 0.01 0.159762)
(0.149858 0.01 0.159666)
(0.150143 0.01 0.159381)
(0.150605 0.01 0.158919)
(0.151226 0.01 0.158297)
(0.151984 0.01 0.15754)
(0.152848 0.01 0.156675)
(0.153786 0.01 0.155737)
(0.154762 0.01 0.154762)
(0.155737 0.01 0.153786)
(0.156675 0.01 0.152848)
(0.15754 0.01 0.151984)
(0.158297 0.01 0.151226)
(0.158919 0.01 0.150605)
(0.159381 0.01 0.150142)
(0.159666 0.01 0.149858)
(0.159762 0.01 0.149762)
(0.159666 0.01 0.149858)
(0.159381 0.01 0.150142)
(0.158919 0.01 0.150605)
(0.158297 0.01 0.151226)
(0.15754 0.01 0.151984)
(0.156675 0.01 0.152848)
(0.155737 0.01 0.153786)
(0.154762 0.01 0.154762)
(0.153786 0.01 0.155737)
(0.152848 0.01 0.156675)
(0.151984 0.01 0.15754)
(0.151226 0.01 0.158297)
(0.150605 0.01 0.158919)
(0.150143 0.01 0.159381)
(0.149858 0.01 0.159666)
(0.125952 0.01 0.135952)
(0.126048 0.01 0.135856)
(0.126333 0.01 0.135571)
(0.126795 0.01 0.135109)
(0.127416 0.01 0.134488)
(0.128174 0.01 0.13373)
(0.129039 0.01 0.132865)
(0.129977 0.01 0.131927)
(0.130952 0.01 0.130952)
(0.131927 0.01 0.129977)
(0.132865 0.01 0.129039)
(0.13373 0.01 0.128174)
(0.134488 0.01 0.127416)
(0.135109 0.01 0.126795)
(0.135571 0.01 0.126333)
(0.135856 0.01 0.126048)
(0.135952 0.01 0.125952)
(0.135856 0.01 0.126048)
(0.135571 0.01 0.126333)
(0.135109 0.01 0.126795)
(0.134488 0.01 0.127416)
(0.13373 0.01 0.128174)
(0.132865 0.01 0.129039)
(0.131927 0.01 0.129977)
(0.130952 0.01 0.130952)
(0.129977 0.01 0.131927)
(0.129039 0.01 0.132865)
(0.128174 0.01 0.13373)
(0.127416 0.01 0.134488)
(0.126795 0.01 0.135109)
(0.126333 0.01 0.135571)
(0.126048 0.01 0.135856)
(0.102143 0.01 0.112143)
(0.102239 0.01 0.112047)
(0.102524 0.01 0.111762)
(0.102986 0.01 0.1113)
(0.103607 0.01 0.110679)
(0.104365 0.01 0.109921)
(0.10523 0.01 0.109056)
(0.106168 0.01 0.108118)
(0.107143 0.01 0.107143)
(0.108118 0.01 0.106168)
(0.109056 0.01 0.10523)
(0.109921 0.01 0.104365)
(0.110679 0.01 0.103607)
(0.1113 0.01 0.102986)
(0.111762 0.01 0.102524)
(0.112047 0.01 0.102239)
(0.112143 0.01 0.102143)
(0.112047 0.01 0.102239)
(0.111762 0.01 0.102524)
(0.1113 0.01 0.102986)
(0.110679 0.01 0.103607)
(0.109921 0.01 0.104365)
(0.109056 0.01 0.10523)
(0.108118 0.01 0.106168)
(0.107143 0.01 0.107143)
(0.106168 0.01 0.108118)
(0.10523 0.01 0.109056)
(0.104365 0.01 0.109921)
(0.103607 0.01 0.110679)
(0.102986 0.01 0.1113)
(0.102524 0.01 0.111762)
(0.102239 0.01 0.112047)
(0.078333 0.01 0.088333)
(0.0784291 0.01 0.0882369)
(0.0787136 0.01 0.0879524)
(0.0791756 0.01 0.0874904)
(0.0797975 0.01 0.0868685)
(0.0805551 0.01 0.0861109)
(0.0814196 0.01 0.0852464)
(0.0823575 0.01 0.0843085)
(0.083333 0.01 0.083333)
(0.0843085 0.01 0.0823575)
(0.0852464 0.01 0.0814196)
(0.0861109 0.01 0.0805552)
(0.0868685 0.01 0.0797975)
(0.0874903 0.01 0.0791757)
(0.0879524 0.01 0.0787136)
(0.0882369 0.01 0.0784291)
(0.088333 0.01 0.078333)
(0.0882369 0.01 0.0784291)
(0.0879524 0.01 0.0787136)
(0.0874903 0.01 0.0791757)
(0.0868685 0.01 0.0797975)
(0.0861109 0.01 0.0805552)
(0.0852464 0.01 0.0814196)
(0.0843085 0.01 0.0823575)
(0.083333 0.01 0.083333)
(0.0823575 0.01 0.0843085)
(0.0814196 0.01 0.0852464)
(0.0805551 0.01 0.0861109)
(0.0797975 0.01 0.0868685)
(0.0791756 0.01 0.0874904)
(0.0787136 0.01 0.0879524)
(0.0784291 0.01 0.0882369)
(0.054524 0.01 0.064524)
(0.0546201 0.01 0.0644279)
(0.0549046 0.01 0.0641434)
(0.0553666 0.01 0.0636814)
(0.0559885 0.01 0.0630595)
(0.0567461 0.01 0.0623019)
(0.0576106 0.01 0.0614374)
(0.0585485 0.01 0.0604995)
(0.059524 0.01 0.059524)
(0.0604995 0.01 0.0585485)
(0.0614374 0.01 0.0576106)
(0.0623019 0.01 0.0567462)
(0.0630595 0.01 0.0559885)
(0.0636813 0.01 0.0553667)
(0.0641434 0.01 0.0549046)
(0.0644279 0.01 0.0546201)
(0.064524 0.01 0.054524)
(0.0644279 0.01 0.0546201)
(0.0641434 0.01 0.0549046)
(0.0636813 0.01 0.0553667)
(0.0630595 0.01 0.0559885)
(0.0623019 0.01 0.0567462)
(0.0614374 0.01 0.0576106)
(0.0604995 0.01 0.0585485)
(0.059524 0.01 0.059524)
(0.0585485 0.01 0.0604995)
(0.0576106 0.01 0.0614374)
(0.0567461 0.01 0.0623019)
(0.0559885 0.01 0.0630595)
(0.0553666 0.01 0.0636814)
(0.0549046 0.01 0.0641434)
(0.0546201 0.01 0.0644279)
(0.030714 0.01 0.040714)
(0.0308101 0.01 0.0406179)
(0.0310946 0.01 0.0403334)
(0.0315566 0.01 0.0398713)
(0.0321785 0.01 0.0392495)
(0.0329361 0.01 0.0384918)
(0.0338006 0.01 0.0376274)
(0.0347385 0.01 0.0366895)
(0.035714 0.01 0.035714)
(0.0366895 0.01 0.0347385)
(0.0376274 0.01 0.0338006)
(0.0384919 0.01 0.0329361)
(0.0392495 0.01 0.0321785)
(0.0398713 0.01 0.0315566)
(0.0403334 0.01 0.0310946)
(0.0406179 0.01 0.0308101)
(0.040714 0.01 0.030714)
(0.0406179 0.01 0.0308101)
(0.0403334 0.01 0.0310946)
(0.0398713 0.01 0.0315566)
(0.0392495 0.01 0.0321785)
(0.0384919 0.01 0.0329361)
(0.0376274 0.01 0.0338006)
(0.0366895 0.01 0.0347385)
(0.035714 0.01 0.035714)
(0.0347385 0.01 0.0366895)
(0.0338006 0.01 0.0376274)
(0.0329361 0.01 0.0384918)
(0.0321785 0.01 0.0392495)
(0.0315566 0.01 0.0398713)
(0.0310946 0.01 0.0403334)
(0.0308101 0.01 0.0406179)
(0.006905 0.01 0.016905)
(0.00700107 0.01 0.0168089)
(0.0072856 0.01 0.0165244)
(0.00774765 0.01 0.0160623)
(0.00836947 0.01 0.0154405)
(0.00912715 0.01 0.0146828)
(0.00999158 0.01 0.0138184)
(0.0109295 0.01 0.0128805)
(0.011905 0.01 0.011905)
(0.0128805 0.01 0.0109295)
(0.0138184 0.01 0.00999158)
(0.0146829 0.01 0.00912715)
(0.0154405 0.01 0.00836947)
(0.0160624 0.01 0.00774765)
(0.0165244 0.01 0.0072856)
(0.0168089 0.01 0.00700107)
(0.016905 0.01 0.006905)
(0.0168089 0.01 0.00700107)
(0.0165244 0.01 0.0072856)
(0.0160624 0.01 0.00774765)
(0.0154405 0.01 0.00836947)
(0.0146829 0.01 0.00912715)
(0.0138184 0.01 0.00999158)
(0.0128805 0.01 0.0109295)
(0.011905 0.01 0.011905)
(0.0109295 0.01 0.0128805)
(0.00999158 0.01 0.0138184)
(0.00912715 0.01 0.0146828)
(0.00836947 0.01 0.0154405)
(0.00774765 0.01 0.0160623)
(0.0072856 0.01 0.0165244)
(0.00700107 0.01 0.0168089)
(-0.016905 0.01 -0.006905)
(-0.0168089 0.01 -0.00700107)
(-0.0165244 0.01 -0.0072856)
(-0.0160623 0.01 -0.00774765)
(-0.0154405 0.01 -0.00836947)
(-0.0146828 0.01 -0.00912715)
(-0.0138184 0.01 -0.00999158)
(-0.0128805 0.01 -0.0109295)
(-0.011905 0.01 -0.011905)
(-0.0109295 0.01 -0.0128805)
(-0.00999158 0.01 -0.0138184)
(-0.00912715 0.01 -0.0146828)
(-0.00836947 0.01 -0.0154405)
(-0.00774765 0.01 -0.0160623)
(-0.0072856 0.01 -0.0165244)
(-0.00700107 0.01 -0.0168089)
(-0.006905 0.01 -0.016905)
(-0.00700107 0.01 -0.0168089)
(-0.0072856 0.01 -0.0165244)
(-0.00774765 0.01 -0.0160623)
(-0.00836947 0.01 -0.0154405)
(-0.00912715 0.01 -0.0146828)
(-0.00999158 0.01 -0.0138184)
(-0.0109295 0.01 -0.0128805)
(-0.011905 0.01 -0.011905)
(-0.0128805 0.01 -0.0109295)
(-0.0138184 0.01 -0.00999158)
(-0.0146828 0.01 -0.00912715)
(-0.0154405 0.01 -0.00836947)
(-0.0160623 0.01 -0.00774765)
(-0.0165244 0.01 -0.0072856)
(-0.0168089 0.01 -0.00700107)
(-0.040714 0.01 -0.030714)
(-0.0406179 0.01 -0.0308101)
(-0.0403334 0.01 -0.0310946)
(-0.0398713 0.01 -0.0315566)
(-0.0392495 0.01 -0.0321785)
(-0.0384918 0.01 -0.0329361)
(-0.0376274 0.01 -0.0338006)
(-0.0366895 0.01 -0.0347385)
(-0.035714 0.01 -0.035714)
(-0.0347385 0.01 -0.0366895)
(-0.0338006 0.01 -0.0376274)
(-0.0329361 0.01 -0.0384918)
(-0.0321785 0.01 -0.0392495)
(-0.0315566 0.01 -0.0398713)
(-0.0310946 0.01 -0.0403334)
(-0.0308101 0.01 -0.0406179)
(-0.030714 0.01 -0.040714)
(-0.0308101 0.01 -0.0406179)
(-0.0310946 0.01 -0.0403334)
(-0.0315566 0.01 -0.0398713)
(-0.0321785 0.01 -0.0392495)
(-0.0329361 0.01 -0.0384918)
(-0.0338006 0.01 -0.0376274)
(-0.0347385 0.01 -0.0366895)
(-0.035714 0.01 -0.035714)
(-0.0366895 0.01 -0.0347385)
(-0.0376274 0.01 -0.0338006)
(-0.0384918 0.01 -0.0329361)
(-0.0392495 0.01 -0.0321785)
(-0.0398713 0.01 -0.0315566)
(-0.0403334 0.01 -0.0310946)
(-0.0406179 0.01 -0.0308101)
(-0.064524 0.01 -0.054524)
(-0.0644279 0.01 -0.0546201)
(-0.0641434 0.01 -0.0549046)
(-0.0636813 0.01 -0.0553666)
(-0.0630595 0.01 -0.0559885)
(-0.0623018 0.01 -0.0567461)
(-0.0614374 0.01 -0.0576106)
(-0.0604995 0.01 -0.0585485)
(-0.059524 0.01 -0.059524)
(-0.0585485 0.01 -0.0604995)
(-0.0576106 0.01 -0.0614374)
(-0.0567461 0.01 -0.0623018)
(-0.0559885 0.01 -0.0630595)
(-0.0553666 0.01 -0.0636813)
(-0.0549046 0.01 -0.0641434)
(-0.0546201 0.01 -0.0644279)
(-0.054524 0.01 -0.064524)
(-0.0546201 0.01 -0.0644279)
(-0.0549046 0.01 -0.0641434)
(-0.0553666 0.01 -0.0636813)
(-0.0559885 0.01 -0.0630595)
(-0.0567461 0.01 -0.0623018)
(-0.0576106 0.01 -0.0614374)
(-0.0585485 0.01 -0.0604995)
(-0.059524 0.01 -0.059524)
(-0.0604995 0.01 -0.0585485)
(-0.0614374 0.01 -0.0576106)
(-0.0623018 0.01 -0.0567461)
(-0.0630595 0.01 -0.0559885)
(-0.0636813 0.01 -0.0553666)
(-0.0641434 0.01 -0.0549046)
(-0.0644279 0.01 -0.0546201)
(-0.088333 0.01 -0.078333)
(-0.0882369 0.01 -0.0784291)
(-0.0879524 0.01 -0.0787136)
(-0.0874903 0.01 -0.0791756)
(-0.0868685 0.01 -0.0797975)
(-0.0861108 0.01 -0.0805551)
(-0.0852464 0.01 -0.0814196)
(-0.0843085 0.01 -0.0823575)
(-0.083333 0.01 -0.083333)
(-0.0823575 0.01 -0.0843085)
(-0.0814196 0.01 -0.0852464)
(-0.0805551 0.01 -0.0861108)
(-0.0797975 0.01 -0.0868685)
(-0.0791756 0.01 -0.0874903)
(-0.0787136 0.01 -0.0879524)
(-0.0784291 0.01 -0.0882369)
(-0.078333 0.01 -0.088333)
(-0.0784291 0.01 -0.0882369)
(-0.0787136 0.01 -0.0879524)
(-0.0791756 0.01 -0.0874903)
(-0.0797975 0.01 -0.0868685)
(-0.0805551 0.01 -0.0861108)
(-0.0814196 0.01 -0.0852464)
(-0.0823575 0.01 -0.0843085)
(-0.083333 0.01 -0.083333)
(-0.0843085 0.01 -0.0823575)
(-0.0852464 0.01 -0.0814196)
(-0.0861108 0.01 -0.0805551)
(-0.0868685 0.01 -0.0797975)
(-0.0874903 0.01 -0.0791756)
(-0.0879524 0.01 -0.0787136)
(-0.0882369 0.01 -0.0784291)
(-0.112143 0.01 -0.102143)
(-0.112047 0.01 -0.102239)
(-0.111762 0.01 -0.102524)
(-0.1113 0.01 -0.102986)
(-0.110679 0.01 -0.103607)
(-0.109921 0.01 -0.104365)
(-0.109056 0.01 -0.10523)
(-0.108118 0.01 -0.106168)
(-0.107143 0.01 -0.107143)
(-0.106168 0.01 -0.108118)
(-0.10523 0.01 -0.109056)
(-0.104365 0.01 -0.109921)
(-0.103607 0.01 -0.110679)
(-0.102986 0.01 -0.1113)
(-0.102524 0.01 -0.111762)
(-0.102239 0.01 -0.112047)
(-0.102143 0.01 -0.112143)
(-0.102239 0.01 -0.112047)
(-0.102524 0.01 -0.111762)
(-0.102986 0.01 -0.1113)
(-0.103607 0.01 -0.110679)
(-0.104365 0.01 -0.109921)
(-0.10523 0.01 -0.109056)
(-0.106168 0.01 -0.108118)
(-0.107143 0.01 -0.107143)
(-0.108118 0.01 -0.106168)
(-0.109056 0.01 -0.10523)
(-0.109921 0.01 -0.104365)
(-0.110679 0.01 -0.103607)
(-0.1113 0.01 -0.102986)
(-0.111762 0.01 -0.102524)
(-0.112047 0.01 -0.102239)
(-0.135952 0.01 -0.125952)
(-0.135856 0.01 -0.126048)
(-0.135571 0.01 -0.126333)
(-0.135109 0.01 -0.126795)
(-0.134488 0.01 -0.127416)
(-0.13373 0.01 -0.128174)
(-0.132865 0.01 -0.129039)
(-0.131927 0.01 -0.129977)
(-0.130952 0.01 -0.130952)
(-0.129977 0.01 -0.131927)
(-0.129039 0.01 -0.132865)
(-0.128174 0.01 -0.13373)
(-0.127416 0.01 -0.134488)
(-0.126795 0.01 -0.135109)
(-0.126333 0.01 -0.135571)
(-0.126048 0.01 -0.135856)
(-0.125952 0.01 -0.135952)
(-0.126048 0.01 -0.135856)
(-0.126333 0.01 -0.135571)
(-0.126795 0.01 -0.135109)
(-0.127416 0.01 -0.134488)
(-0.128174 0.01 -0.13373)
(-0.129039 0.01 -0.132865)
(-0.129977 0.01 -0.131927)
(-0.130952 0.01 -0.130952)
(-0.131927 0.01 -0.129977)
(-0.132865 0.01 -0.129039)
(-0.13373 0.01 -0.128174)
(-0.134488 0.01 -0.127416)
(-0.135109 0.01 -0.126795)
(-0.135571 0.01 -0.126333)
(-0.135856 0.01 -0.126048)
(-0.159762 0.01 -0.149762)
(-0.159666 0.01 -0.149858)
(-0.159381 0.01 -0.150143)
(-0.158919 0.01 -0.150605)
(-0.158298 0.01 -0.151226)
(-0.15754 0.01 -0.151984)
(-0.156675 0.01 -0.152849)
(-0.155737 0.01 -0.153787)
(-0.154762 0.01 -0.154762)
(-0.153787 0.01 -0.155737)
(-0.152849 0.01 -0.156675)
(-0.151984 0.01 -0.15754)
(-0.151226 0.01 -0.158298)
(-0.150605 0.01 -0.158919)
(-0.150143 0.01 -0.159381)
(-0.149858 0.01 -0.159666)
(-0.149762 0.01 -0.159762)
(-0.149858 0.01 -0.159666)
(-0.150143 0.01 -0.159381)
(-0.150605 0.01 -0.158919)
(-0.151226 0.01 -0.158298)
(-0.151984 0.01 -0.15754)
(-0.152849 0.01 -0.156675)
(-0.153787 0.01 -0.155737)
(-0.154762 0.01 -0.154762)
(-0.155737 0.01 -0.153787)
(-0.156675 0.01 -0.152849)
(-0.15754 0.01 -0.151984)
(-0.158298 0.01 -0.151226)
(-0.158919 0.01 -0.150605)
(-0.159381 0.01 -0.150143)
(-0.159666 0.01 -0.149858)
(-0.183571 0.01 -0.173571)
(-0.183475 0.01 -0.173667)
(-0.18319 0.01 -0.173952)
(-0.182728 0.01 -0.174414)
(-0.182107 0.01 -0.175035)
(-0.181349 0.01 -0.175793)
(-0.180484 0.01 -0.176658)
(-0.179546 0.01 -0.177596)
(-0.178571 0.01 -0.178571)
(-0.177596 0.01 -0.179546)
(-0.176658 0.01 -0.180484)
(-0.175793 0.01 -0.181349)
(-0.175035 0.01 -0.182107)
(-0.174414 0.01 -0.182728)
(-0.173952 0.01 -0.18319)
(-0.173667 0.01 -0.183475)
(-0.173571 0.01 -0.183571)
(-0.173667 0.01 -0.183475)
(-0.173952 0.01 -0.18319)
(-0.174414 0.01 -0.182728)
(-0.175035 0.01 -0.182107)
(-0.175793 0.01 -0.181349)
(-0.176658 0.01 -0.180484)
(-0.177596 0.01 -0.179546)
(-0.178571 0.01 -0.178571)
(-0.179546 0.01 -0.177596)
(-0.180484 0.01 -0.176658)
(-0.181349 0.01 -0.175793)
(-0.182107 0.01 -0.175035)
(-0.182728 0.01 -0.174414)
(-0.18319 0.01 -0.173952)
(-0.183475 0.01 -0.173667)
(-0.207381 0.01 -0.197381)
(-0.207285 0.01 -0.197477)
(-0.207 0.01 -0.197762)
(-0.206538 0.01 -0.198224)
(-0.205917 0.01 -0.198845)
(-0.205159 0.01 -0.199603)
(-0.204294 0.01 -0.200468)
(-0.203356 0.01 -0.201406)
(-0.202381 0.01 -0.202381)
(-0.201406 0.01 -0.203356)
(-0.200468 0.01 -0.204294)
(-0.199603 0.01 -0.205159)
(-0.198845 0.01 -0.205917)
(-0.198224 0.01 -0.206538)
(-0.197762 0.01 -0.207)
(-0.197477 0.01 -0.207285)
(-0.197381 0.01 -0.207381)
(-0.197477 0.01 -0.207285)
(-0.197762 0.01 -0.207)
(-0.198224 0.01 -0.206538)
(-0.198845 0.01 -0.205917)
(-0.199603 0.01 -0.205159)
(-0.200468 0.01 -0.204294)
(-0.201406 0.01 -0.203356)
(-0.202381 0.01 -0.202381)
(-0.203356 0.01 -0.201406)
(-0.204294 0.01 -0.200468)
(-0.205159 0.01 -0.199603)
(-0.205917 0.01 -0.198845)
(-0.206538 0.01 -0.198224)
(-0.207 0.01 -0.197762)
(-0.207285 0.01 -0.197477)
(-0.23119 0.01 -0.22119)
(-0.231094 0.01 -0.221286)
(-0.230809 0.01 -0.221571)
(-0.230347 0.01 -0.222033)
(-0.229726 0.01 -0.222654)
(-0.228968 0.01 -0.223412)
(-0.228103 0.01 -0.224277)
(-0.227165 0.01 -0.225215)
(-0.22619 0.01 -0.22619)
(-0.225215 0.01 -0.227165)
(-0.224277 0.01 -0.228103)
(-0.223412 0.01 -0.228968)
(-0.222654 0.01 -0.229726)
(-0.222033 0.01 -0.230347)
(-0.221571 0.01 -0.230809)
(-0.221286 0.01 -0.231094)
(-0.22119 0.01 -0.23119)
(-0.221286 0.01 -0.231094)
(-0.221571 0.01 -0.230809)
(-0.222033 0.01 -0.230347)
(-0.222654 0.01 -0.229726)
(-0.223412 0.01 -0.228968)
(-0.224277 0.01 -0.228103)
(-0.225215 0.01 -0.227165)
(-0.22619 0.01 -0.22619)
(-0.227165 0.01 -0.225215)
(-0.228103 0.01 -0.224277)
(-0.228968 0.01 -0.223412)
(-0.229726 0.01 -0.222654)
(-0.230347 0.01 -0.222033)
(-0.230809 0.01 -0.221571)
(-0.231094 0.01 -0.221286)
(-0.255 0.01 -0.245)
(-0.254904 0.01 -0.245096)
(-0.254619 0.01 -0.245381)
(-0.254157 0.01 -0.245843)
(-0.253536 0.01 -0.246464)
(-0.252778 0.01 -0.247222)
(-0.251913 0.01 -0.248087)
(-0.250975 0.01 -0.249025)
(-0.25 0.01 -0.25)
(-0.249025 0.01 -0.250975)
(-0.248087 0.01 -0.251913)
(-0.247222 0.01 -0.252778)
(-0.246464 0.01 -0.253536)
(-0.245843 0.01 -0.254157)
(-0.245381 0.01 -0.254619)
(-0.245096 0.01 -0.254904)
(-0.245 0.01 -0.255)
(-0.245096 0.01 -0.254904)
(-0.245381 0.01 -0.254619)
(-0.245843 0.01 -0.254157)
(-0.246464 0.01 -0.253536)
(-0.247222 0.01 -0.252778)
(-0.248087 0.01 -0.251913)
(-0.249025 0.01 -0.250975)
(-0.25 0.01 -0.25)
(-0.250975 0.01 -0.249025)
(-0.251913 0.01 -0.248087)
(-0.252778 0.01 -0.247222)
(-0.253536 0.01 -0.246464)
(-0.254157 0.01 -0.245843)
(-0.254619 0.01 -0.245381)
(-0.254904 0.01 -0.245096)
)
;

boundaryField
{
    left_0
    {
        type            calculated;
    }
    left_1
    {
        type            calculated;
    }
    right_0
    {
        type            calculated;
    }
    right_1
    {
        type            calculated;
    }
    beam
    {
        type            empty;
    }
}


// ************************************************************************* //
