/*--------------------------------*- C++ -*----------------------------------*\
| =========                 |                                                 |
| \\      /  F ield         | foam-extend: Open Source CFD                    |
|  \\    /   O peration     | Version:     4.1                                |
|   \\  /    A nd           | Web:         http://www.foam-extend.org         |
|    \\/     M anipulation  |                                                 |
\*---------------------------------------------------------------------------*/
FoamFile
{
    version     2.0;
    format      ascii;
    class       volVectorField;
    location    "0";
    object      refW;
}
// * * * * * * * * * * * * * * * * * * * * * * * * * * * * * * * * * * * * * //

dimensions      [0 1 0 0 0 0 0];

internalField   nonuniform List<vector> 
42
(
(0 0 0)
(0 0 0)
(0 0 0)
(0 0 0)
(0 0 0)
(0 0 0)
(0 0 0)
(0 0 0)
(0 0 0)
(0 0 0)
(0 0 0)
(0 0 0)
(0 0 0)
(0 0 0)
(0 0 0)
(0 0 0)
(0 0 0)
(0 0 0)
(0 0 0)
(0 0 0)
(0 0 0)
(0.238095 0.01 0.238095)
(0.214286 0.01 0.214286)
(0.190476 0.01 0.190476)
(0.166667 0.01 0.166667)
(0.142857 0.01 0.142857)
(0.119047 0.01 0.119047)
(0.095238 0.01 0.095238)
(0.0714285 0.01 0.0714285)
(0.047619 0.01 0.047619)
(0.0238095 0.01 0.0238095)
(5.55112e-17 0.01 5.54885e-17)
(-0.0238095 0.01 -0.0238095)
(-0.047619 0.01 -0.047619)
(-0.0714285 0.01 -0.0714285)
(-0.095238 0.01 -0.095238)
(-0.119048 0.01 -0.119048)
(-0.142857 0.01 -0.142857)
(-0.166667 0.01 -0.166667)
(-0.190476 0.01 -0.190476)
(-0.214286 0.01 -0.214286)
(-0.238095 0.01 -0.238095)
)
;

boundaryField
{
    left_0
    {
        type            calculated;
        value           uniform (0 0 0);
    }
    left_1
    {
        type            calculated;
        value           uniform (0.25 0.01 0.25);
    }
    right_0
    {
        type            calculated;
        value           uniform (0 0 0);
    }
    right_1
    {
        type            calculated;
        value           uniform (-0.25 0.01 -0.25);
    }
    beam
    {
        type            empty;
    }
}


// ************************************************************************* //
