/*--------------------------------*- C++ -*----------------------------------*\
| =========                 |                                                 |
| \\      /  F ield         | foam-extend: Open Source CFD                    |
|  \\    /   O peration     | Version:     4.1                                |
|   \\  /    A nd           | Web:         http://www.foam-extend.org         |
|    \\/     M anipulation  |                                                 |
\*---------------------------------------------------------------------------*/
FoamFile
{
    version     2.0;
    format      ascii;
    class       surfaceVectorField;
    location    "0";
    object      refWf;
}
// * * * * * * * * * * * * * * * * * * * * * * * * * * * * * * * * * * * * * //

dimensions      [0 1 0 0 0 0 0];

internalField   nonuniform List<vector> 
40
(
(0 0 0)
(0 0 0)
(0 0 0)
(0 0 0)
(0 0 0)
(0 0 0)
(0 0 0)
(0 0 0)
(0 0 0)
(0 0 0)
(0 0 0)
(0 0 0)
(0 0 0)
(0 0 0)
(0 0 0)
(0 0 0)
(0 0 0)
(0 0 0)
(0 0 0)
(0 0 0)
(0.226191 0.01 0.226191)
(0.202381 0.01 0.202381)
(0.178571 0.01 0.178571)
(0.154762 0.01 0.154762)
(0.130952 0.01 0.130952)
(0.107143 0.01 0.107143)
(0.083333 0.01 0.083333)
(0.059524 0.01 0.059524)
(0.035714 0.01 0.035714)
(0.011905 0.01 0.011905)
(-0.011905 0.01 -0.011905)
(-0.035714 0.01 -0.035714)
(-0.059524 0.01 -0.059524)
(-0.083333 0.01 -0.083333)
(-0.107143 0.01 -0.107143)
(-0.130952 0.01 -0.130952)
(-0.154762 0.01 -0.154762)
(-0.178571 0.01 -0.178571)
(-0.202381 0.01 -0.202381)
(-0.22619 0.01 -0.22619)
)
;

boundaryField
{
    left_0
    {
        type            calculated;
        value           uniform (0 0 0);
    }
    left_1
    {
        type            calculated;
        value           uniform (0.25 0.01 0.25);
    }
    right_0
    {
        type            calculated;
        value           uniform (0 0 0);
    }
    right_1
    {
        type            calculated;
        value           uniform (-0.25 0.01 -0.25);
    }
    beam
    {
        type            empty;
    }
}


// ************************************************************************* //
