/*--------------------------------*- C++ -*----------------------------------*\
| =========                 |                                                 |
| \\      /  F ield         | foam-extend: Open Source CFD                    |
|  \\    /   O peration     | Version:     4.1                                |
|   \\  /    A nd           | Web:         http://www.foam-extend.org         |
|    \\/     M anipulation  |                                                 |
\*---------------------------------------------------------------------------*/
FoamFile
{
    version     2.0;
    format      ascii;
    class       volTensorField;
    location    "0";
    object      refRM;
}
// * * * * * * * * * * * * * * * * * * * * * * * * * * * * * * * * * * * * * //

dimensions      [0 0 0 0 0 0 0];

internalField   nonuniform List<tensor> 
41
(
(-0.256763 -0.966475 0 0.966475 -0.256763 0 0 0 1)
(-0.167356 -0.985896 0 0.985896 -0.167356 0 0 0 1)
(-0.0765493 -0.997066 0 0.997066 -0.0765493 0 0 0 1)
(0.0148981 -0.999889 0 0.999889 0.0148981 0 0 0 1)
(0.106221 -0.994343 0 0.994343 0.106221 0 0 0 1)
(0.196655 -0.980473 0 0.980473 0.196655 0 0 0 1)
(0.285443 -0.958396 0 0.958396 0.285443 0 0 0 1)
(0.371842 -0.928296 0 0.928296 0.371842 0 0 0 1)
(0.455128 -0.890426 0 0.890426 0.455128 0 0 0 1)
(0.534604 -0.845103 0 0.845103 0.534604 0 0 0 1)
(0.609606 -0.792704 0 0.792704 0.609606 0 0 0 1)
(0.679504 -0.733672 0 0.733672 0.679504 0 0 0 1)
(0.743712 -0.6685 0 0.6685 0.743712 0 0 0 1)
(0.801699 -0.597728 0 0.597728 0.801699 0 0 0 1)
(0.852974 -0.521954 0 0.521954 0.852974 0 0 0 1)
(0.897107 -0.441814 0 0.441814 0.897107 0 0 0 1)
(0.933732 -0.357972 0 0.357972 0.933732 0 0 0 1)
(0.962542 -0.271133 0 0.271133 0.962542 0 0 0 1)
(0.983293 -0.182029 0 0.182029 0.983293 0 0 0 1)
(0.995815 -0.0913972 0 0.0913972 0.995815 0 0 0 1)
(1 -3.10862e-15 0 3.10862e-15 1 0 0 0 1)
(0.995815 0.0913922 0 -0.0913922 0.995815 0 0 0 1)
(0.983294 0.182024 0 -0.182024 0.983294 0 0 0 1)
(0.962542 0.271133 0 -0.271133 0.962542 0 0 0 1)
(0.933734 0.357967 0 -0.357967 0.933734 0 0 0 1)
(0.897109 0.44181 0 -0.44181 0.897109 0 0 0 1)
(0.852974 0.521954 0 -0.521954 0.852974 0 0 0 1)
(0.801702 0.597724 0 -0.597724 0.801702 0 0 0 1)
(0.743716 0.668496 0 -0.668496 0.743716 0 0 0 1)
(0.679504 0.733672 0 -0.733672 0.679504 0 0 0 1)
(0.609609 0.792703 0 -0.792703 0.609609 0 0 0 1)
(0.534606 0.845101 0 -0.845101 0.534606 0 0 0 1)
(0.455129 0.890426 0 -0.890426 0.455129 0 0 0 1)
(0.371846 0.928294 0 -0.928294 0.371846 0 0 0 1)
(0.285446 0.958395 0 -0.958395 0.285446 0 0 0 1)
(0.196657 0.980472 0 -0.980472 0.196657 0 0 0 1)
(0.106226 0.994342 0 -0.994342 0.106226 0 0 0 1)
(0.0149016 0.999889 0 -0.999889 0.0149016 0 0 0 1)
(-0.0765478 0.997066 0 -0.997066 -0.0765478 0 0 0 1)
(-0.167352 0.985897 0 -0.985897 -0.167352 0 0 0 1)
(-0.256759 0.966475 0 -0.966475 -0.256759 0 0 0 1)
)
;

boundaryField
{
    left
    {
        type            calculated;
        value           uniform (-0.300706 -0.953717 0 0.953717 -0.300706 0 0 0 1);
    }
    right
    {
        type            calculated;
        value           uniform (-0.300706 0.953717 0 -0.953717 -0.300706 0 0 0 1);
    }
    beam
    {
        type            empty;
    }
}


// ************************************************************************* //
