/*--------------------------------*- C++ -*----------------------------------*\
| =========                 |                                                 |
| \\      /  F ield         | OpenFOAM: The Open Source CFD Toolbox           |
|  \\    /   O peration     | Version:  2312                                  |
|   \\  /    A nd           | Website:  www.openfoam.com                      |
|    \\/     M anipulation  |                                                 |
\*---------------------------------------------------------------------------*/
FoamFile
{
    version     2.0;
    format      ascii;
    arch        "LSB;label=32;scalar=64";
    class       surfaceTensorField;
    location    "2";
    object      CMTheta;
}
// * * * * * * * * * * * * * * * * * * * * * * * * * * * * * * * * * * * * * //

dimensions      [1 3 -2 0 0 0 0];

internalField   nonuniform List<tensor> 
59
(
(0.00120637 1.65764e-24 -2.51346e-08 1.65764e-24 0.000603186 -6.9364e-29 -2.51346e-08 -6.9364e-29 0.000603186)
(0.00120637 -1.61433e-24 -2.41662e-08 -1.61433e-24 0.000603186 8.50919e-29 -2.41662e-08 8.50917e-29 0.000603186)
(0.00120637 3.6309e-25 -2.33639e-08 3.6309e-25 0.000603186 -3.38068e-29 -2.33639e-08 -3.38065e-29 0.000603186)
(0.00120637 -8.90358e-25 -2.24623e-08 -8.90358e-25 0.000603186 2.75852e-29 -2.24623e-08 2.75853e-29 0.000603186)
(0.00120637 -1.98638e-25 -2.162e-08 -1.98638e-25 0.000603186 1.86221e-29 -2.162e-08 1.86219e-29 0.000603186)
(0.00120637 -6.09897e-25 -2.07423e-08 -6.09897e-25 0.000603186 3.18153e-29 -2.07423e-08 3.18157e-29 0.000603186)
(0.00120637 -3.47889e-25 -1.98858e-08 -3.47889e-25 0.000603186 -3.48065e-29 -1.98858e-08 -3.48065e-29 0.000603186)
(0.00120637 -6.15326e-25 -1.90165e-08 -6.15326e-25 0.000603186 8.98057e-30 -1.90165e-08 8.98047e-30 0.000603186)
(0.00120637 -3.7557e-25 -1.81549e-08 -3.7557e-25 0.000603186 -3.63855e-29 -1.81549e-08 -3.63852e-29 0.000603186)
(0.00120637 -5.73914e-25 -1.72887e-08 -5.73914e-25 0.000603186 2.0511e-29 -1.72887e-08 2.05106e-29 0.000603186)
(0.00120637 -4.23423e-25 -1.64253e-08 -4.23423e-25 0.000603186 -1.29433e-29 -1.64253e-08 -1.29432e-29 0.000603186)
(0.00120637 -7.70269e-25 -1.55602e-08 -7.70269e-25 0.000603186 -1.50322e-28 -1.55602e-08 -1.50321e-28 0.000603186)
(0.00120637 -1.27501e-24 -1.46961e-08 -1.27501e-24 0.000603186 6.72423e-29 -1.46961e-08 6.72423e-29 0.000603186)
(0.00120637 8.05382e-25 -1.38314e-08 8.05382e-25 0.000603186 2.89536e-29 -1.38314e-08 2.89536e-29 0.000603186)
(0.00120637 -2.29801e-24 -1.29671e-08 -2.29801e-24 0.000603186 3.07055e-29 -1.29671e-08 3.07056e-29 0.000603186)
(0.00120637 -2.42523e-24 -1.21025e-08 -2.42523e-24 0.000603186 7.09868e-29 -1.21025e-08 7.09866e-29 0.000603186)
(0.00120637 -1.59426e-25 -1.12381e-08 -1.59426e-25 0.000603186 -6.06645e-30 -1.12381e-08 -6.06646e-30 0.000603186)
(0.00120637 -3.10958e-25 -1.03736e-08 -3.10958e-25 0.000603186 2.23952e-29 -1.03736e-08 2.2395e-29 0.000603186)
(0.00120637 -1.66112e-24 -9.50915e-09 -1.66112e-24 0.000603186 1.84662e-29 -9.50915e-09 1.84665e-29 0.000603186)
(0.00120637 5.96562e-24 -8.64467e-09 5.96562e-24 0.000603186 -8.62588e-29 -8.64467e-09 -8.62588e-29 0.000603186)
(0.00120637 -1.27296e-23 -7.78021e-09 -1.27296e-23 0.000603186 1.54654e-28 -7.78021e-09 1.54654e-28 0.000603186)
(0.00120637 1.81823e-23 -6.91574e-09 1.81823e-23 0.000603186 -2.40037e-28 -6.91574e-09 -2.40037e-28 0.000603186)
(0.00120637 -2.74212e-23 -6.05137e-09 -2.74212e-23 0.000603186 2.6595e-28 -6.05137e-09 2.6595e-28 0.000603186)
(0.00120637 5.13261e-23 -5.18681e-09 5.13261e-23 0.000603186 -4.50462e-28 -5.18681e-09 -4.50462e-28 0.000603186)
(0.00120637 -8.01517e-23 -4.32244e-09 -8.01517e-23 0.000603186 5.74049e-28 -4.32244e-09 5.74049e-28 0.000603186)
(0.00120637 1.50468e-22 -3.45787e-09 1.50468e-22 0.000603186 -8.81953e-28 -3.45787e-09 -8.81953e-28 0.000603186)
(0.00120637 -2.30781e-22 -2.5935e-09 -2.30781e-22 0.000603186 9.89397e-28 -2.5935e-09 9.89397e-28 0.000603186)
(0.00120637 3.77048e-22 -1.72894e-09 3.77048e-22 0.000603186 -1.08374e-27 -1.72894e-09 -1.08374e-27 0.000603186)
(0.00120637 -6.53708e-22 -8.64565e-10 -6.53708e-22 0.000603186 9.61794e-28 -8.64565e-10 9.61794e-28 0.000603186)
(0.00120637 5.41027e-25 2.45759e-16 5.41027e-25 0.000603186 1.6542e-29 2.45759e-16 1.65422e-29 0.000603186)
(0.00120637 6.53994e-22 8.6437e-10 6.53994e-22 0.000603186 9.36324e-28 8.6437e-10 9.36324e-28 0.000603186)
(0.00120637 -3.92511e-22 1.72894e-09 -3.92511e-22 0.000603186 -1.12659e-27 1.72894e-09 -1.12659e-27 0.000603186)
(0.00120637 2.28004e-22 2.59331e-09 2.28004e-22 0.000603186 9.6262e-28 2.59331e-09 9.62621e-28 0.000603186)
(0.00120637 -1.34681e-22 3.45787e-09 -1.34681e-22 0.000603186 -7.77643e-28 3.45787e-09 -7.77643e-28 0.000603186)
(0.00120637 8.85057e-23 4.32224e-09 8.85057e-23 0.000603186 6.94216e-28 4.32224e-09 6.94216e-28 0.000603186)
(0.00120637 -4.56312e-23 5.18681e-09 -4.56312e-23 0.000603186 -3.77914e-28 5.18681e-09 -3.77914e-28 0.000603186)
(0.00120637 3.47221e-23 6.05118e-09 3.47221e-23 0.000603186 3.19821e-28 6.05118e-09 3.19821e-28 0.000603186)
(0.00120637 -1.29877e-23 6.91574e-09 -1.29877e-23 0.000603186 -1.63784e-28 6.91574e-09 -1.63783e-28 0.000603186)
(0.00120637 7.98582e-24 7.78012e-09 7.98582e-24 0.000603186 6.41198e-29 7.78012e-09 6.41201e-29 0.000603186)
(0.00120637 -5.74468e-24 8.64467e-09 -5.74468e-24 0.000603186 -1.12022e-28 8.64467e-09 -1.12022e-28 0.000603186)
(0.00120637 4.49538e-24 9.50906e-09 4.49538e-24 0.000603186 1.17268e-28 9.50906e-09 1.17268e-28 0.000603186)
(0.00120637 -2.27031e-25 1.03736e-08 -2.27031e-25 0.000603186 -2.15002e-29 1.03736e-08 -2.15005e-29 0.000603186)
(0.00120637 1.39709e-24 1.1238e-08 1.39709e-24 0.000603186 4.51457e-29 1.1238e-08 4.51452e-29 0.000603186)
(0.00120637 -4.19225e-25 1.21025e-08 -4.19225e-25 0.000603186 -3.91533e-29 1.21025e-08 -3.9153e-29 0.000603186)
(0.00120637 2.83522e-24 1.2967e-08 2.83522e-24 0.000603186 6.652e-29 1.2967e-08 6.652e-29 0.000603186)
(0.00120637 5.10396e-25 1.38314e-08 5.10396e-25 0.000603186 1.59672e-29 1.38314e-08 1.59669e-29 0.000603186)
(0.00120637 1.67238e-24 1.4696e-08 1.67238e-24 0.000603186 4.26372e-29 1.4696e-08 4.26375e-29 0.000603186)
(0.00120637 1.10602e-24 1.55602e-08 1.10602e-24 0.000603186 4.38308e-29 1.55602e-08 4.38311e-29 0.000603186)
(0.00120637 1.18683e-24 1.64252e-08 1.18683e-24 0.000603186 2.05433e-29 1.64252e-08 2.05431e-29 0.000603186)
(0.00120637 1.17961e-24 1.72887e-08 1.17961e-24 0.000603186 4.37051e-29 1.72887e-08 4.3705e-29 0.000603186)
(0.00120637 1.08858e-24 1.81548e-08 1.08858e-24 0.000603186 2.22708e-29 1.81548e-08 2.22709e-29 0.000603186)
(0.00120637 1.09884e-24 1.90165e-08 1.09884e-24 0.000603186 4.1724e-29 1.90165e-08 4.1724e-29 0.000603186)
(0.00120637 3.18024e-25 1.98857e-08 3.18024e-25 0.000603186 1.62595e-29 1.98857e-08 1.62597e-29 0.000603186)
(0.00120637 7.63621e-25 2.07423e-08 7.63621e-25 0.000603186 3.59992e-29 2.07423e-08 3.59995e-29 0.000603186)
(0.00120637 1.29386e-25 2.16199e-08 1.29386e-25 0.000603186 3.07295e-29 2.16199e-08 3.07297e-29 0.000603186)
(0.00120637 3.35452e-25 2.24623e-08 3.35452e-25 0.000603186 -1.1998e-28 2.24623e-08 -1.1998e-28 0.000603186)
(0.00120637 -9.29406e-25 2.33638e-08 -9.29406e-25 0.000603186 -3.86816e-29 2.33638e-08 -3.86814e-29 0.000603186)
(0.00120637 1.42341e-24 2.41662e-08 1.42341e-24 0.000603186 5.09651e-29 2.41662e-08 5.0965e-29 0.000603186)
(0.00120637 -2.08629e-24 2.51345e-08 -2.08629e-24 0.000603186 -8.76323e-29 2.51345e-08 -8.76323e-29 0.000603186)
)
;

boundaryField
{
    left
    {
        type            calculated;
        value           uniform (0.00120637 -3.98963e-24 -2.58255e-08 -3.98963e-24 0.000603186 1.73007e-28 -2.58255e-08 1.73007e-28 0.000603186);
    }
    right
    {
        type            calculated;
        value           uniform (0.00120637 3.4706e-24 2.58255e-08 3.4706e-24 0.000603186 1.50895e-28 2.58255e-08 1.50895e-28 0.000603186);
    }
    beam
    {
        type            empty;
        value           nonuniform List<tensor> 0();
    }
}


// ************************************************************************* //
