/*--------------------------------*- C++ -*----------------------------------*\
| =========                 |                                                 |
| \\      /  F ield         | OpenFOAM: The Open Source CFD Toolbox           |
|  \\    /   O peration     | Version:  2312                                  |
|   \\  /    A nd           | Website:  www.openfoam.com                      |
|    \\/     M anipulation  |                                                 |
\*---------------------------------------------------------------------------*/
FoamFile
{
    version     2.0;
    format      ascii;
    arch        "LSB;label=32;scalar=64";
    class       surfaceTensorField;
    location    "2";
    object      CQTheta;
}
// * * * * * * * * * * * * * * * * * * * * * * * * * * * * * * * * * * * * * //

dimensions      [1 1 -2 0 0 0 0];

internalField   nonuniform List<tensor> 
59
(
(2.8878e-24 0.00628365 6.14441e-19 -0.00628365 -8.1109e-26 -150.796 -5.45118e-19 150.796 -2.80671e-24)
(2.55711e-24 0.00604156 -2.19449e-19 -0.00604156 5.7632e-24 -150.796 2.83263e-19 150.796 -8.32027e-24)
(2.44624e-24 0.00584098 2.73025e-19 -0.00584098 -5.57354e-24 -150.796 -2.09864e-19 150.796 3.12726e-24)
(2.69262e-24 0.00561556 -1.39658e-20 -0.00561556 -1.57299e-24 -150.796 8.62665e-20 150.796 -1.1196e-24)
(2.31491e-24 0.00540501 1.36707e-19 -0.00540501 3.24747e-24 -150.796 -7.21199e-20 150.796 -5.56228e-24)
(2.41598e-24 0.00518556 5.02462e-20 -0.00518556 3.06101e-24 -150.796 2.00087e-20 150.796 -5.47698e-24)
(1.87321e-24 0.00497144 7.69821e-20 -0.00497144 -1.30648e-23 -150.796 -2.0162e-20 150.796 1.11915e-23)
(2.34781e-24 0.00475413 6.10505e-20 -0.00475413 -2.94158e-24 -150.796 1.34191e-20 150.796 5.9369e-25)
(1.60227e-24 0.00453873 5.97161e-20 -0.00453873 -1.34639e-23 -150.796 -6.4814e-21 150.796 1.18616e-23)
(2.06223e-24 0.00432218 6.41298e-20 -0.00432218 1.14651e-24 -150.796 7.81906e-21 150.796 -3.20877e-24)
(1.43539e-24 0.00410632 4.62442e-20 -0.00410632 -6.90951e-24 -150.796 6.46769e-21 150.796 5.47408e-24)
(3.89445e-24 0.00389005 2.43048e-19 -0.00389005 -4.80497e-23 -150.796 -9.20808e-20 150.796 4.41553e-23)
(8.28646e-25 0.00367402 -2.20614e-19 -0.00367402 1.0214e-23 -150.796 2.54625e-19 150.796 -1.10426e-23)
(3.09408e-25 0.00345785 2.4028e-19 -0.00345785 1.33883e-23 -150.796 -2.26787e-19 150.796 -1.36977e-23)
(4.24349e-24 0.00324177 -4.92317e-21 -0.00324177 -5.27856e-24 -150.796 2.02317e-19 150.796 1.03511e-24)
(6.93766e-24 0.00302563 3.91412e-19 -0.00302563 6.3032e-24 -150.796 -4.56419e-20 150.796 -1.32408e-23)
(1.56505e-24 0.00280953 2.02529e-19 -0.00280953 -2.55129e-24 -150.796 -1.18528e-19 150.796 9.86252e-25)
(9.86411e-25 0.0025934 8.77614e-20 -0.0025934 4.81278e-24 -150.796 -3.04053e-20 150.796 -5.79917e-24)
(1.90333e-24 0.00237729 -6.69073e-20 -0.00237729 -2.17982e-24 -150.796 1.8764e-19 150.796 2.7651e-25)
(1.14524e-24 0.00216117 1.72199e-18 -0.00216117 -2.14832e-25 -150.796 -1.64208e-18 150.796 -9.30312e-25)
(-2.18097e-24 0.00194505 -3.6703e-18 -0.00194505 -2.6931e-24 -150.796 3.50121e-18 150.796 4.87407e-24)
(3.31647e-24 0.00172894 5.38024e-18 -0.00172894 -8.91308e-24 -150.796 -5.09098e-18 150.796 5.59654e-24)
(-5.406e-24 0.00151284 -8.41018e-18 -0.00151284 -2.58307e-24 -150.796 7.87132e-18 150.796 7.98899e-24)
(-7.75392e-25 0.0012967 1.25713e-17 -0.0012967 -2.57136e-24 -150.796 -1.26615e-17 150.796 3.34685e-24)
(-2.80388e-24 0.00108061 -2.1167e-17 -0.00108061 -9.0054e-26 -150.796 2.07757e-17 150.796 2.89382e-24)
(-1.01688e-23 0.000864468 3.24986e-17 -0.000864468 -5.46815e-24 -150.796 -3.42724e-17 150.796 1.5637e-23)
(7.79962e-25 0.000648375 -5.71719e-17 -0.000648375 -8.14976e-25 -150.796 5.73533e-17 150.796 3.50487e-26)
(2.97353e-24 0.000432234 9.72553e-17 -0.000432234 -8.46458e-25 -150.796 -9.62179e-17 150.796 -2.12703e-24)
(1.83897e-24 0.000216141 -1.59725e-16 -0.000216141 7.00548e-24 -150.796 1.61008e-16 150.796 -8.84447e-24)
(2.96454e-32 -6.14397e-11 -7.46918e-20 6.14397e-11 4.67034e-24 -150.796 1.93192e-21 150.796 -4.67036e-24)
(1.85713e-24 -0.000216093 1.59759e-16 0.000216093 -2.41137e-25 -150.796 -1.61055e-16 150.796 -1.61596e-24)
(-2.70123e-24 -0.000432234 -9.54083e-17 0.000432234 -4.30152e-25 -150.796 9.63507e-17 150.796 3.13128e-24)
(-1.52723e-24 -0.000648326 5.80259e-17 0.000648326 -4.98218e-24 -150.796 -5.76707e-17 150.796 6.50948e-24)
(2.88683e-24 -0.000864468 -3.51232e-17 0.000864468 -1.57021e-24 -150.796 3.46197e-17 150.796 -1.3165e-24)
(5.61539e-24 -0.00108056 1.98652e-17 0.00108056 1.69429e-23 -150.796 -2.06489e-17 150.796 -2.25582e-23)
(3.94889e-24 -0.0012967 -1.27329e-17 0.0012967 4.08513e-24 -150.796 1.22737e-17 150.796 -8.03398e-24)
(6.48161e-24 -0.00151279 6.81623e-18 0.00151279 -8.04988e-24 -150.796 -7.46232e-18 150.796 1.5682e-24)
(6.50897e-24 -0.00172894 -4.88504e-18 0.00172894 -4.19965e-24 -150.796 4.31733e-18 150.796 -2.3093e-24)
(-3.42836e-24 -0.00194503 2.76341e-18 0.00194503 -1.09779e-23 -150.796 -2.49762e-18 150.796 1.44064e-23)
(8.87245e-25 -0.00216117 -1.61481e-18 0.00216117 -8.38243e-24 -150.796 1.5529e-18 150.796 7.49521e-24)
(2.44254e-24 -0.00237726 6.76773e-19 0.00237726 1.30998e-23 -150.796 -8.31711e-19 150.796 -1.55424e-23)
(3.43319e-24 -0.0025934 -6.32781e-19 0.0025934 -4.96782e-24 -150.796 4.33154e-19 150.796 1.53464e-24)
(2.08508e-24 -0.0028095 2.63442e-20 0.0028095 5.39693e-24 -150.796 -1.38258e-19 150.796 -7.482e-24)
(1.03444e-24 -0.00302563 -2.53571e-19 0.00302563 -8.6792e-24 -150.796 2.02015e-19 150.796 7.6447e-24)
(4.08953e-24 -0.00324174 1.59887e-19 0.00324174 1.57254e-24 -150.796 -3.5012e-19 150.796 -5.66213e-24)
(4.28762e-24 -0.00345785 -4.11939e-19 0.00345785 1.20356e-24 -150.796 2.24957e-19 150.796 -5.49116e-24)
(3.61262e-24 -0.003674 -9.75829e-21 0.003674 5.33947e-25 -150.796 -1.38519e-19 150.796 -4.1466e-24)
(4.93812e-24 -0.00389005 -2.7585e-19 0.00389005 4.31939e-24 -150.796 8.44255e-20 150.796 -9.25759e-24)
(3.42417e-24 -0.0041063 -6.6136e-20 0.0041063 -3.32449e-24 -150.796 -5.96109e-20 150.796 -9.96477e-26)
(5.02557e-24 -0.00432218 -2.11029e-19 0.00432218 2.79355e-24 -150.796 3.56934e-20 150.796 -7.81904e-24)
(3.79364e-24 -0.0045387 -9.15522e-20 0.0045387 -2.9625e-24 -150.796 -3.44906e-20 150.796 -8.31149e-25)
(4.97476e-24 -0.00475413 -1.806e-19 0.00475413 1.9991e-24 -150.796 2.28072e-20 150.796 -6.97385e-24)
(9.9621e-25 -0.00497141 -7.68879e-21 0.00497141 1.63059e-24 -150.796 -2.25295e-20 150.796 -2.62672e-24)
(3.62389e-24 -0.00518556 -1.13169e-19 0.00518556 2.74987e-24 -150.796 7.78881e-21 150.796 -6.37378e-24)
(1.37049e-24 -0.00540499 -7.79882e-20 0.00540499 7.36645e-24 -150.796 3.97506e-20 150.796 -8.73703e-24)
(4.12221e-25 -0.00561556 5.19242e-20 0.00561556 -3.74004e-23 -150.796 -6.29929e-20 150.796 3.69881e-23)
(-5.16147e-26 -0.00584096 -2.28506e-19 0.00584096 -7.57164e-25 -150.796 2.29839e-19 150.796 8.0866e-25)
(1.18263e-24 -0.00604156 2.70692e-19 0.00604156 -1.71181e-24 -150.796 -3.00205e-19 150.796 5.29196e-25)
(4.88091e-25 -0.00628362 -5.55381e-19 0.00628362 -1.96829e-25 -150.796 5.43665e-19 150.796 -2.91205e-25)
)
;

boundaryField
{
    left
    {
        type            calculated;
        value           uniform (-2.99928e-24 -0.00645637 7.95396e-19 0.00645637 -6.17103e-25 150.796 -8.65404e-19 -150.796 3.61636e-24);
    }
    right
    {
        type            calculated;
        value           uniform (6.51481e-25 -0.00645637 8.23797e-19 0.00645637 6.49228e-25 -150.796 -8.38995e-19 150.796 -1.30062e-24);
    }
    beam
    {
        type            empty;
        value           nonuniform List<tensor> 0();
    }
}


// ************************************************************************* //
