/*--------------------------------*- C++ -*----------------------------------*\
| =========                 |                                                 |
| \\      /  F ield         | OpenFOAM: The Open Source CFD Toolbox           |
|  \\    /   O peration     | Version:  2312                                  |
|   \\  /    A nd           | Website:  www.openfoam.com                      |
|    \\/     M anipulation  |                                                 |
\*---------------------------------------------------------------------------*/
FoamFile
{
    version     2.0;
    format      ascii;
    arch        "LSB;label=32;scalar=64";
    class       surfaceVectorField;
    location    "2";
    object      K;
}
// * * * * * * * * * * * * * * * * * * * * * * * * * * * * * * * * * * * * * //

dimensions      [0 -1 0 0 0 0 0];

oriented        oriented;

internalField   nonuniform List<vector> 
59
(
(-1.02912e-20 -5.17403e-05 -1.22855e-18)
(-9.9203e-21 -2.07783e-05 -1.62524e-19)
(-9.55137e-21 -3.93063e-05 -4.07406e-19)
(-9.18097e-21 -2.8219e-05 1.14979e-19)
(-8.8112e-21 -3.48538e-05 8.39777e-20)
(-8.44091e-21 -3.08834e-05 3.07394e-19)
(-8.07078e-21 -3.32593e-05 3.20153e-19)
(-7.7005e-21 -3.18376e-05 3.42691e-19)
(-7.33032e-21 -3.26884e-05 3.13168e-19)
(-6.96009e-21 -3.21792e-05 3.02525e-19)
(-6.58992e-21 -3.24839e-05 2.35036e-19)
(-6.2198e-21 -3.23016e-05 6.3888e-19)
(-5.84901e-21 -3.24107e-05 -1.33288e-19)
(-5.48004e-21 -3.23454e-05 -2.67177e-19)
(-5.10944e-21 -3.23845e-05 -1.5224e-19)
(-4.74028e-21 -3.23611e-05 -8.97305e-19)
(-4.37079e-21 -3.23751e-05 -1.19546e-19)
(-4.00049e-21 -3.23667e-05 5.8578e-19)
(-3.62996e-21 -3.23717e-05 -1.61777e-19)
(-3.26093e-21 -3.23687e-05 6.73902e-18)
(-2.87998e-21 -3.23705e-05 -2.08515e-18)
(-2.52432e-21 -3.23694e-05 5.45656e-18)
(-2.13178e-21 -3.23701e-05 -7.74069e-18)
(-1.79627e-21 -3.23697e-05 1.49903e-17)
(-1.36896e-21 -3.23699e-05 -2.3518e-17)
(-1.09237e-21 -3.23698e-05 4.05312e-17)
(-5.66999e-22 -3.23699e-05 -6.90035e-17)
(-4.57962e-22 -3.23698e-05 1.15432e-16)
(3.49464e-22 -3.23698e-05 -1.92039e-16)
(1.69658e-23 -3.23698e-05 -9.56134e-16)
(-3.15479e-22 -3.23698e-05 -1.91836e-16)
(4.92471e-22 -3.23698e-05 1.15225e-16)
(6.00812e-22 -3.23699e-05 -6.83379e-17)
(1.12789e-21 -3.23698e-05 4.10525e-17)
(1.4036e-21 -3.23699e-05 -2.52492e-17)
(1.82929e-21 -3.23697e-05 1.4495e-17)
(2.16576e-21 -3.23701e-05 -8.33921e-18)
(2.55645e-21 -3.23694e-05 6.5844e-18)
(2.91571e-21 -3.23705e-05 -2.05266e-18)
(3.29318e-21 -3.23687e-05 2.42924e-18)
(3.65933e-21 -3.23717e-05 -9.94612e-19)
(4.0316e-21 -3.23667e-05 8.95384e-19)
(4.40065e-21 -3.23751e-05 -5.05416e-19)
(4.77082e-21 -3.23611e-05 -8.09439e-19)
(5.13943e-21 -3.23845e-05 -1.07834e-19)
(5.51063e-21 -3.23454e-05 4.84547e-19)
(5.88011e-21 -3.24107e-05 7.33396e-20)
(6.25068e-21 -3.23016e-05 3.28056e-19)
(6.62055e-21 -3.24839e-05 2.09952e-19)
(6.99094e-21 -3.21792e-05 3.20357e-19)
(7.36098e-21 -3.26884e-05 3.16158e-19)
(7.73135e-21 -3.18375e-05 3.65416e-19)
(8.10147e-21 -3.32594e-05 3.70773e-19)
(8.47184e-21 -3.08834e-05 4.25909e-19)
(8.84207e-21 -3.4854e-05 2.21404e-19)
(9.21209e-21 -2.82188e-05 2.92783e-19)
(9.5825e-21 -3.93069e-05 -4.37625e-19)
(9.95137e-21 -2.0778e-05 -2.09924e-19)
(1.03223e-20 -5.1742e-05 -1.19143e-18)
)
;

boundaryField
{
    left
    {
        type            calculated;
        value           uniform (-1.3795e-33 -6.03837e-35 1.22379e-37);
    }
    right
    {
        type            calculated;
        value           uniform (-9.91718e-34 8.75657e-25 -6.90131e-38);
    }
    beam
    {
        type            empty;
        value           nonuniform List<vector> 0();
    }
}


// ************************************************************************* //
