/*--------------------------------*- C++ -*----------------------------------*\
| =========                 |                                                 |
| \\      /  F ield         | OpenFOAM: The Open Source CFD Toolbox           |
|  \\    /   O peration     | Version:  2312                                  |
|   \\  /    A nd           | Website:  www.openfoam.com                      |
|    \\/     M anipulation  |                                                 |
\*---------------------------------------------------------------------------*/
FoamFile
{
    version     2.0;
    format      ascii;
    arch        "LSB;label=32;scalar=64";
    class       volScalarField;
    location    "2";
    object      L;
}
// * * * * * * * * * * * * * * * * * * * * * * * * * * * * * * * * * * * * * //

dimensions      [0 1 0 0 0 0 0];

internalField   nonuniform List<scalar> 
60
(
0.044275
0.044275
0.044275
0.044275
0.044275
0.044275
0.044275
0.044275
0.044275
0.044275
0.044275
0.044275
0.044275
0.044275
0.044275
0.044275
0.044275
0.044275
0.044275
0.044275
0.044275
0.044275
0.04427
0.04428
0.04427
0.04428
0.04427
0.04428
0.04427
0.04428
0.04427
0.04428
0.04427
0.04428
0.04427
0.04428
0.04427
0.04428
0.04427
0.04428
0.04427
0.04428
0.04427
0.04428
0.04427
0.04428
0.04427
0.04428
0.04427
0.04428
0.04427
0.04428
0.04427
0.04428
0.04427
0.04428
0.04427
0.04428
0.04427
0.04428
)
;

boundaryField
{
    left
    {
        type            calculated;
        value           uniform 0;
    }
    right
    {
        type            calculated;
        value           uniform 0;
    }
    beam
    {
        type            empty;
    }
}


// ************************************************************************* //
