/*--------------------------------*- C++ -*----------------------------------*\
| =========                 |                                                 |
| \\      /  F ield         | OpenFOAM: The Open Source CFD Toolbox           |
|  \\    /   O peration     | Version:  2312                                  |
|   \\  /    A nd           | Website:  www.openfoam.com                      |
|    \\/     M anipulation  |                                                 |
\*---------------------------------------------------------------------------*/
FoamFile
{
    version     2.0;
    format      ascii;
    arch        "LSB;label=32;scalar=64";
    class       surfaceTensorField;
    location    "2";
    object      Lambdaf;
}
// * * * * * * * * * * * * * * * * * * * * * * * * * * * * * * * * * * * * * //

dimensions      [0 0 0 0 0 0 0];

internalField   nonuniform List<tensor> 
59
(
(1 2.32263e-19 4.16698e-05 3.15519e-21 1 -5.65937e-15 -4.16698e-05 5.65937e-15 1)
(1 2.28667e-19 4.00644e-05 -2.30165e-21 1 -5.65939e-15 -4.00644e-05 5.65939e-15 1)
(1 2.17869e-19 3.87343e-05 9.72822e-22 1 -5.65939e-15 -3.87343e-05 5.65939e-15 1)
(1 2.1138e-19 3.72395e-05 -1.05156e-21 1 -5.65939e-15 -3.72395e-05 5.65939e-15 1)
(1 2.02421e-19 3.58432e-05 4.99255e-23 1 -5.65938e-15 -3.58432e-05 5.65938e-15 1)
(1 1.948e-19 3.43879e-05 -5.98605e-22 1 -5.65938e-15 -3.43879e-05 5.65938e-15 1)
(1 1.86487e-19 3.2968e-05 -2.43122e-22 1 -5.65937e-15 -3.2968e-05 5.65937e-15 1)
(1 1.78568e-19 3.15269e-05 -5.82855e-22 1 -5.65937e-15 -3.15269e-05 5.65937e-15 1)
(1 1.70335e-19 3.00984e-05 -3.10067e-22 1 -5.65936e-15 -3.00984e-05 5.65936e-15 1)
(1 1.62318e-19 2.86624e-05 -5.29001e-22 1 -5.65936e-15 -2.86624e-05 5.65936e-15 1)
(1 1.54193e-19 2.72309e-05 -3.9247e-22 1 -5.65936e-15 -2.72309e-05 5.65936e-15 1)
(1 1.45497e-19 2.57968e-05 -3.90523e-22 1 -5.65936e-15 -2.57968e-05 5.65936e-15 1)
(1 1.396e-19 2.43642e-05 -1.9141e-21 1 -5.65936e-15 -2.43642e-05 5.65936e-15 1)
(1 1.28279e-19 2.29307e-05 1.41443e-21 1 -5.65936e-15 -2.29307e-05 5.65936e-15 1)
(1 1.23155e-19 2.14977e-05 -2.65068e-21 1 -5.65935e-15 -2.14977e-05 5.65935e-15 1)
(1 1.13511e-19 2.00644e-05 -1.99031e-21 1 -5.65935e-15 -2.00644e-05 5.65935e-15 1)
(1 1.04719e-19 1.86313e-05 2.28944e-22 1 -5.65935e-15 -1.86313e-05 5.65935e-15 1)
(1 9.71719e-20 1.71981e-05 -1.7874e-22 1 -5.65935e-15 -1.71981e-05 5.65935e-15 1)
(1 9.05553e-20 1.57649e-05 -2.04497e-21 1 -5.65935e-15 -1.57649e-05 5.65935e-15 1)
(1 7.02797e-20 1.43317e-05 1.03594e-20 1 -5.65935e-15 -1.43317e-05 5.65935e-15 1)
(1 9.60873e-20 1.28986e-05 -2.20968e-20 1 -5.65935e-15 -1.28986e-05 5.65935e-15 1)
(1 3.13457e-20 1.14654e-05 3.18424e-20 1 -5.65935e-15 -1.14654e-05 5.65935e-15 1)
(1 1.08566e-19 1.00324e-05 -4.86249e-20 1 -5.65935e-15 -1.00324e-05 5.65935e-15 1)
(1 -3.53676e-20 8.59905e-06 8.45621e-20 1 -5.65935e-15 -8.59905e-06 5.65935e-15 1)
(1 1.78031e-19 7.16603e-06 -1.35178e-19 1 -5.65935e-15 -7.16603e-06 5.65935e-15 1)
(1 -1.9618e-19 5.7327e-06 2.39039e-19 1 -5.65935e-15 -5.7327e-06 5.65935e-15 1)
(1 4.04807e-19 4.29968e-06 -3.81539e-19 1 -5.65935e-15 -4.29968e-06 5.65935e-15 1)
(1 -6.21055e-19 2.86635e-06 6.31185e-19 1 -5.65935e-15 -2.86635e-06 5.65935e-15 1)
(1 1.0768e-18 1.43334e-06 -1.07622e-18 1 -5.65935e-15 -1.43334e-06 5.65935e-15 1)
(1 -4.24356e-23 -2.83444e-13 4.69691e-22 1 -5.65936e-15 2.83444e-13 5.65936e-15 1)
(1 -1.07712e-18 -1.43301e-06 1.07662e-18 1 -5.65935e-15 1.43301e-06 5.65935e-15 1)
(1 6.2344e-19 -2.86635e-06 -6.45195e-19 1 -5.65935e-15 2.86635e-06 5.65935e-15 1)
(1 -4.06503e-19 -4.29936e-06 3.80085e-19 1 -5.65935e-15 4.29936e-06 5.65935e-15 1)
(1 1.96753e-19 -5.7327e-06 -2.26239e-19 1 -5.65935e-15 5.7327e-06 5.65935e-15 1)
(1 -1.7808e-19 -7.16571e-06 1.42129e-19 1 -5.65935e-15 7.16571e-06 5.65935e-15 1)
(1 3.23785e-20 -8.59905e-06 -7.83469e-20 1 -5.65935e-15 8.59905e-06 5.65935e-15 1)
(1 -1.06752e-19 -1.00321e-05 5.37706e-20 1 -5.65935e-15 1.00321e-05 5.65935e-15 1)
(1 -3.66876e-20 -1.14654e-05 -2.48654e-20 1 -5.65935e-15 1.14654e-05 5.65935e-15 1)
(1 -8.93577e-20 -1.28984e-05 1.48002e-20 1 -5.65935e-15 1.28984e-05 5.65935e-15 1)
(1 -7.08574e-20 -1.43317e-05 -9.88742e-21 1 -5.65935e-15 1.43317e-05 5.65935e-15 1)
(1 -9.48515e-20 -1.57648e-05 6.54293e-21 1 -5.65935e-15 1.57648e-05 5.65935e-15 1)
(1 -9.46091e-20 -1.71981e-05 -1.54861e-21 1 -5.65935e-15 1.71981e-05 5.65935e-15 1)
(1 -1.06442e-19 -1.86311e-05 1.65903e-21 1 -5.65935e-15 1.86311e-05 5.65935e-15 1)
(1 -1.12251e-19 -2.00644e-05 -9.97744e-22 1 -5.65935e-15 2.00644e-05 5.65935e-15 1)
(1 -1.24128e-19 -2.14975e-05 3.58334e-21 1 -5.65935e-15 2.14975e-05 5.65935e-15 1)
(1 -1.28423e-19 -2.29307e-05 -2.51802e-22 1 -5.65936e-15 2.29307e-05 5.65936e-15 1)
(1 -1.38916e-19 -2.4364e-05 1.9019e-21 1 -5.65936e-15 2.4364e-05 5.65936e-15 1)
(1 -1.45579e-19 -2.57968e-05 7.0958e-22 1 -5.65936e-15 2.57968e-05 5.65936e-15 1)
(1 -1.546e-19 -2.72308e-05 1.22922e-21 1 -5.65936e-15 2.72308e-05 5.65936e-15 1)
(1 -1.62108e-19 -2.86624e-05 9.2606e-22 1 -5.65936e-15 2.86624e-05 5.65936e-15 1)
(1 -1.70662e-19 -3.00983e-05 1.0646e-21 1 -5.65936e-15 3.00983e-05 5.65936e-15 1)
(1 -1.78391e-19 -3.15269e-05 8.95178e-22 1 -5.65937e-15 3.15269e-05 5.65937e-15 1)
(1 -1.86749e-19 -3.29678e-05 3.49822e-22 1 -5.65937e-15 3.29678e-05 5.65937e-15 1)
(1 -1.94643e-19 -3.43879e-05 6.472e-22 1 -5.65938e-15 3.43879e-05 5.65938e-15 1)
(1 -2.02615e-19 -3.5843e-05 -1.00044e-23 1 -5.65938e-15 3.5843e-05 5.65938e-15 1)
(1 -2.11179e-19 -3.72394e-05 4.91165e-22 1 -5.65939e-15 3.72394e-05 5.65939e-15 1)
(1 -2.17686e-19 -3.87341e-05 -1.53297e-21 1 -5.65939e-15 3.87341e-05 5.65939e-15 1)
(1 -2.28753e-19 -4.00644e-05 2.18654e-21 1 -5.65939e-15 4.00644e-05 5.65939e-15 1)
(1 -2.32228e-19 -4.16696e-05 -3.52756e-21 1 -5.65937e-15 4.16696e-05 5.65937e-15 1)
)
;

boundaryField
{
    left
    {
        type            calculated;
        value           uniform (1 2.48098e-19 4.28152e-05 -6.20318e-21 1 -5.65935e-15 -4.28152e-05 5.65935e-15 1);
    }
    right
    {
        type            calculated;
        value           uniform (1 -2.47882e-19 -4.28152e-05 5.66457e-21 1 -5.65935e-15 4.28152e-05 5.65935e-15 1);
    }
    beam
    {
        type            empty;
        value           nonuniform List<tensor> 0();
    }
}


// ************************************************************************* //
