/*--------------------------------*- C++ -*----------------------------------*\
| =========                 |                                                 |
| \\      /  F ield         | OpenFOAM: The Open Source CFD Toolbox           |
|  \\    /   O peration     | Version:  2312                                  |
|   \\  /    A nd           | Website:  www.openfoam.com                      |
|    \\/     M anipulation  |                                                 |
\*---------------------------------------------------------------------------*/
FoamFile
{
    version     2.0;
    format      ascii;
    arch        "LSB;label=32;scalar=64";
    class       volTensorField;
    location    "2";
    object      Lambda;
}
// * * * * * * * * * * * * * * * * * * * * * * * * * * * * * * * * * * * * * //

dimensions      [0 0 0 0 0 0 0];

internalField   nonuniform List<tensor> 
60
(
(1 2.48098e-19 4.28152e-05 -6.20318e-21 1 -5.65935e-15 -4.28152e-05 5.65935e-15 1)
(1 3.02501e-19 4.05244e-05 -7.35375e-20 1 -5.65935e-15 -4.05244e-05 5.65935e-15 1)
(1 3.09718e-19 3.96044e-05 -8.6019e-20 1 -5.65935e-15 -3.96044e-05 5.65935e-15 1)
(1 3.27776e-19 3.78641e-05 -1.13875e-19 1 -5.65935e-15 -3.78641e-05 5.65935e-15 1)
(1 3.22674e-19 3.66148e-05 -1.15851e-19 1 -5.65935e-15 -3.66148e-05 5.65935e-15 1)
(1 3.18944e-19 3.50716e-05 -1.20864e-19 1 -5.65935e-15 -3.50716e-05 5.65935e-15 1)
(1 3.0533e-19 3.37042e-05 -1.14975e-19 1 -5.65935e-15 -3.37042e-05 5.65935e-15 1)
(1 2.93794e-19 3.22317e-05 -1.11849e-19 1 -5.65935e-15 -3.22317e-05 5.65935e-15 1)
(1 2.7867e-19 3.08221e-05 -1.04619e-19 1 -5.65935e-15 -3.08221e-05 5.65935e-15 1)
(1 2.66199e-19 2.93748e-05 -1.00269e-19 1 -5.65935e-15 -2.93748e-05 5.65935e-15 1)
(1 2.52594e-19 2.79501e-05 -9.49455e-20 1 -5.65935e-15 -2.79501e-05 5.65935e-15 1)
(1 2.40991e-19 2.65118e-05 -9.14469e-20 1 -5.65935e-15 -2.65118e-05 5.65935e-15 1)
(1 2.28182e-19 2.50817e-05 -8.67451e-20 1 -5.65935e-15 -2.50817e-05 5.65935e-15 1)
(1 2.21205e-19 2.36467e-05 -8.8769e-20 1 -5.65935e-15 -2.36467e-05 5.65935e-15 1)
(1 1.98578e-19 2.22146e-05 -7.39692e-20 1 -5.65934e-15 -2.22146e-05 5.65934e-15 1)
(1 2.05865e-19 2.07808e-05 -8.88021e-20 1 -5.65934e-15 -2.07808e-05 5.65934e-15 1)
(1 1.73455e-19 1.9348e-05 -6.46401e-20 1 -5.65934e-15 -1.9348e-05 5.65934e-15 1)
(1 1.79218e-19 1.79146e-05 -7.85734e-20 1 -5.65934e-15 -1.79146e-05 5.65934e-15 1)
(1 1.51972e-19 1.64816e-05 -5.57955e-20 1 -5.65934e-15 -1.64816e-05 5.65934e-15 1)
(1 1.57729e-19 1.50483e-05 -7.32448e-20 1 -5.65934e-15 -1.50483e-05 5.65934e-15 1)
(1 9.98138e-20 1.36152e-05 -2.40212e-20 1 -5.65934e-15 -1.36152e-05 5.65934e-15 1)
(1 1.9758e-19 1.2182e-05 -1.30153e-19 1 -5.65934e-15 -1.2182e-05 5.65934e-15 1)
(1 -3.58957e-20 1.07489e-05 9.85017e-20 1 -5.65934e-15 -1.07489e-05 5.65934e-15 1)
(1 3.37218e-19 9.31571e-06 -2.841e-19 1 -5.65934e-15 -9.31571e-06 5.65934e-15 1)
(1 -3.34424e-19 7.88254e-06 3.7691e-19 1 -5.65934e-15 -7.88254e-06 5.65934e-15 1)
(1 7.52366e-19 6.44936e-06 -7.11809e-19 1 -5.65934e-15 -6.44936e-06 5.65934e-15 1)
(1 -1.10301e-18 5.01619e-06 1.12917e-18 1 -5.65934e-15 -5.01619e-06 5.65934e-15 1)
(1 1.95204e-18 3.58302e-06 -1.93088e-18 1 -5.65934e-15 -3.58302e-06 5.65934e-15 1)
(1 -3.16269e-18 2.14984e-06 3.17124e-18 1 -5.65934e-15 -2.14984e-06 5.65934e-15 1)
(1 5.33193e-18 7.16668e-07 -5.337e-18 1 -5.65934e-15 -7.16668e-07 5.65934e-15 1)
(1 -5.32678e-18 -7.16506e-07 5.33914e-18 1 -5.65934e-15 7.16506e-07 5.65934e-15 1)
(1 3.16112e-18 -2.14968e-06 -3.17549e-18 1 -5.65934e-15 2.14968e-06 5.65934e-15 1)
(1 -1.93433e-18 -3.58285e-06 1.91282e-18 1 -5.65934e-15 3.58285e-06 5.65934e-15 1)
(1 1.08922e-18 -5.01603e-06 -1.11155e-18 1 -5.65934e-15 5.01603e-06 5.65934e-15 1)
(1 -7.41994e-19 -6.4492e-06 7.1077e-19 1 -5.65934e-15 6.4492e-06 5.65934e-15 1)
(1 3.24934e-19 -7.88238e-06 -3.65325e-19 1 -5.65934e-15 7.88238e-06 5.65934e-15 1)
(1 -3.31952e-19 -9.31555e-06 2.82294e-19 1 -5.65934e-15 9.31555e-06 5.65934e-15 1)
(1 3.57185e-20 -1.07487e-05 -8.95486e-20 1 -5.65934e-15 1.07487e-05 5.65934e-15 1)
(1 -2.0284e-19 -1.21819e-05 1.35528e-19 1 -5.65934e-15 1.21819e-05 5.65934e-15 1)
(1 -7.7439e-20 -1.36151e-05 2.40228e-21 1 -5.65934e-15 1.36151e-05 5.65934e-15 1)
(1 -1.77634e-19 -1.50482e-05 9.35975e-20 1 -5.65934e-15 1.50482e-05 5.65934e-15 1)
(1 -1.35424e-19 -1.64815e-05 4.32173e-20 1 -5.65934e-15 1.64815e-05 5.65934e-15 1)
(1 -1.85583e-19 -1.79145e-05 8.55709e-20 1 -5.65934e-15 1.79145e-05 5.65934e-15 1)
(1 -1.65977e-19 -1.93479e-05 5.79698e-20 1 -5.65934e-15 1.93479e-05 5.65934e-15 1)
(1 -2.03847e-19 -2.07807e-05 8.75506e-20 1 -5.65934e-15 2.07807e-05 5.65934e-15 1)
(1 -1.97351e-19 -2.22145e-05 7.24013e-20 1 -5.65934e-15 2.22145e-05 5.65934e-15 1)
(1 -2.18521e-19 -2.36466e-05 8.60613e-20 1 -5.65935e-15 2.36466e-05 5.65935e-15 1)
(1 -2.24173e-19 -2.50816e-05 8.32153e-20 1 -5.65935e-15 2.50816e-05 5.65935e-15 1)
(1 -2.38976e-19 -2.65118e-05 8.99311e-20 1 -5.65935e-15 2.65118e-05 5.65935e-15 1)
(1 -2.49836e-19 -2.795e-05 9.22725e-20 1 -5.65935e-15 2.795e-05 5.65935e-15 1)
(1 -2.63824e-19 -2.93747e-05 9.86046e-20 1 -5.65935e-15 2.93747e-05 5.65935e-15 1)
(1 -2.78455e-19 -3.0822e-05 1.04552e-19 1 -5.65935e-15 3.0822e-05 5.65935e-15 1)
(1 -2.93757e-19 -3.22316e-05 1.11557e-19 1 -5.65935e-15 3.22316e-05 5.65935e-15 1)
(1 -3.09554e-19 -3.37042e-05 1.1926e-19 1 -5.65935e-15 3.37042e-05 5.65935e-15 1)
(1 -3.23663e-19 -3.50715e-05 1.25489e-19 1 -5.65935e-15 3.50715e-05 5.65935e-15 1)
(1 -3.3332e-19 -3.66147e-05 1.26387e-19 1 -5.65935e-15 3.66147e-05 5.65935e-15 1)
(1 -3.35826e-19 -3.78641e-05 1.21773e-19 1 -5.65935e-15 3.78641e-05 5.65935e-15 1)
(1 -3.20567e-19 -3.96044e-05 9.6639e-20 1 -5.65935e-15 3.96044e-05 5.65935e-15 1)
(1 -2.99847e-19 -4.05243e-05 7.06863e-20 1 -5.65935e-15 4.05243e-05 5.65935e-15 1)
(1 -2.47882e-19 -4.28152e-05 5.66457e-21 1 -5.65935e-15 4.28152e-05 5.65935e-15 1)
)
;

boundaryField
{
    left
    {
        type            calculated;
        value           uniform (1 2.48098e-19 4.28152e-05 -6.20318e-21 1 -5.65935e-15 -4.28152e-05 5.65935e-15 1);
    }
    right
    {
        type            calculated;
        value           uniform (1 -2.47882e-19 -4.28152e-05 5.66457e-21 1 -5.65935e-15 4.28152e-05 5.65935e-15 1);
    }
    beam
    {
        type            empty;
    }
}


// ************************************************************************* //
