/*--------------------------------*- C++ -*----------------------------------*\
| =========                 |                                                 |
| \\      /  F ield         | OpenFOAM: The Open Source CFD Toolbox           |
|  \\    /   O peration     | Version:  2312                                  |
|   \\  /    A nd           | Website:  www.openfoam.com                      |
|    \\/     M anipulation  |                                                 |
\*---------------------------------------------------------------------------*/
FoamFile
{
    version     2.0;
    format      ascii;
    arch        "LSB;label=32;scalar=64";
    class       volVectorField;
    location    "2";
    object      Omega;
}
// * * * * * * * * * * * * * * * * * * * * * * * * * * * * * * * * * * * * * //

dimensions      [0 0 -1 0 0 0 0];

internalField   nonuniform List<vector> 
60
(
(2.93797e-15 -2.13839e-05 1.21302e-19)
(2.93797e-15 -2.03526e-05 1.11254e-19)
(2.93797e-15 -1.97543e-05 1.12582e-19)
(2.93797e-15 -1.9007e-05 1.05344e-19)
(2.93797e-15 -1.8283e-05 1.03923e-19)
(2.93797e-15 -1.75844e-05 9.81262e-20)
(2.93798e-15 -1.68471e-05 9.4888e-20)
(2.93798e-15 -1.61471e-05 9.16271e-20)
(2.93798e-15 -1.54163e-05 8.815e-20)
(2.93798e-15 -1.47089e-05 7.97207e-20)
(2.93798e-15 -1.39845e-05 7.86378e-20)
(2.93798e-15 -1.32721e-05 7.12318e-20)
(2.93798e-15 -1.25515e-05 7.13832e-20)
(2.93798e-15 -1.18364e-05 6.32985e-20)
(2.93798e-15 -1.11176e-05 6.37864e-20)
(2.93798e-15 -1.04013e-05 5.34303e-20)
(2.93798e-15 -9.68336e-06 6.4894e-20)
(2.93798e-15 -8.96647e-06 3.64057e-20)
(2.93798e-15 -8.2489e-06 7.54165e-20)
(2.93798e-15 -7.53177e-06 2.09303e-21)
(2.93798e-15 -6.81435e-06 9.38084e-20)
(2.93798e-15 -6.09712e-06 -4.52886e-20)
(2.93799e-15 -5.37981e-06 1.35034e-19)
(2.93799e-15 -4.66253e-06 -1.20643e-19)
(2.93799e-15 -3.94521e-06 2.09294e-19)
(2.93799e-15 -3.22792e-06 -2.09322e-19)
(2.93799e-15 -2.5106e-06 2.42427e-19)
(2.93799e-15 -1.7933e-06 -1.22315e-19)
(2.93799e-15 -1.076e-06 -2.0404e-19)
(2.93799e-15 -3.58694e-07 1.06325e-18)
(2.93799e-15 3.58613e-07 -1.06532e-18)
(2.93799e-15 1.07592e-06 2.02042e-19)
(2.93799e-15 1.79322e-06 1.18825e-19)
(2.93799e-15 2.51052e-06 -2.4544e-19)
(2.93799e-15 3.22784e-06 2.11419e-19)
(2.93799e-15 3.94513e-06 -2.14939e-19)
(2.93799e-15 4.66245e-06 1.20646e-19)
(2.93798e-15 5.37973e-06 -1.38343e-19)
(2.93798e-15 6.09708e-06 4.50663e-20)
(2.93798e-15 6.81431e-06 -8.93501e-20)
(2.93798e-15 7.53173e-06 -4.55093e-21)
(2.93798e-15 8.24886e-06 -6.85633e-20)
(2.93798e-15 8.96643e-06 -3.39493e-20)
(2.93798e-15 9.68332e-06 -6.16614e-20)
(2.93798e-15 1.04013e-05 -5.05063e-20)
(2.93798e-15 1.11176e-05 -6.41707e-20)
(2.93798e-15 1.18364e-05 -6.18752e-20)
(2.93798e-15 1.25514e-05 -7.05098e-20)
(2.93798e-15 1.32721e-05 -7.08788e-20)
(2.93798e-15 1.39845e-05 -7.66816e-20)
(2.93798e-15 1.47089e-05 -7.99681e-20)
(2.93798e-15 1.54162e-05 -8.55258e-20)
(2.93798e-15 1.6147e-05 -9.08771e-20)
(2.93798e-15 1.6847e-05 -9.23875e-20)
(2.93797e-15 1.75844e-05 -9.95331e-20)
(2.93797e-15 1.82829e-05 -9.90164e-20)
(2.93797e-15 1.9007e-05 -1.06265e-19)
(2.93797e-15 1.97543e-05 -1.10998e-19)
(2.93797e-15 2.03525e-05 -1.11094e-19)
(2.93797e-15 2.1384e-05 -1.20059e-19)
)
;

boundaryField
{
    left
    {
        type            calculated;
        value           uniform (2.93797e-15 -2.13839e-05 1.21302e-19);
    }
    right
    {
        type            calculated;
        value           uniform (2.93797e-15 2.1384e-05 -1.20059e-19);
    }
    beam
    {
        type            empty;
    }
}


// ************************************************************************* //
