/*--------------------------------*- C++ -*----------------------------------*\
| =========                 |                                                 |
| \\      /  F ield         | foam-extend: Open Source CFD                    |
|  \\    /   O peration     | Version:     4.1                                |
|   \\  /    A nd           | Web:         http://www.foam-extend.org         |
|    \\/     M anipulation  |                                                 |
\*---------------------------------------------------------------------------*/
FoamFile
{
    version     2.0;
    format      ascii;
    class       pointVectorField;
    location    "0";
    object      pointW;
}
// * * * * * * * * * * * * * * * * * * * * * * * * * * * * * * * * * * * * * //

dimensions      [0 1 0 0 0 0 0];

internalField   nonuniform List<vector> 
1344
(
(0 0 0)
(0 0 0)
(0 0 0)
(0 0 0)
(0 0 0)
(0 0 0)
(0 0 0)
(0 0 0)
(0 0 0)
(0 0 0)
(0 0 0)
(0 0 0)
(0 0 0)
(0 0 0)
(0 0 0)
(0 0 0)
(0 0 0)
(0 0 0)
(0 0 0)
(0 0 0)
(0 0 0)
(0 0 0)
(0 0 0)
(0 0 0)
(0 0 0)
(0 0 0)
(0 0 0)
(0 0 0)
(0 0 0)
(0 0 0)
(0 0 0)
(0 0 0)
(0 0 0)
(0 0 0)
(0 0 0)
(0 0 0)
(0 0 0)
(0 0 0)
(0 0 0)
(0 0 0)
(0 0 0)
(0 0 0)
(0 0 0)
(0 0 0)
(0 0 0)
(0 0 0)
(0 0 0)
(0 0 0)
(0 0 0)
(0 0 0)
(0 0 0)
(0 0 0)
(0 0 0)
(0 0 0)
(0 0 0)
(0 0 0)
(0 0 0)
(0 0 0)
(0 0 0)
(0 0 0)
(0 0 0)
(0 0 0)
(0 0 0)
(0 0 0)
(0 0 0)
(0 0 0)
(0 0 0)
(0 0 0)
(0 0 0)
(0 0 0)
(0 0 0)
(0 0 0)
(0 0 0)
(0 0 0)
(0 0 0)
(0 0 0)
(0 0 0)
(0 0 0)
(0 0 0)
(0 0 0)
(0 0 0)
(0 0 0)
(0 0 0)
(0 0 0)
(0 0 0)
(0 0 0)
(0 0 0)
(0 0 0)
(0 0 0)
(0 0 0)
(0 0 0)
(0 0 0)
(0 0 0)
(0 0 0)
(0 0 0)
(0 0 0)
(0 0 0)
(0 0 0)
(0 0 0)
(0 0 0)
(0 0 0)
(0 0 0)
(0 0 0)
(0 0 0)
(0 0 0)
(0 0 0)
(0 0 0)
(0 0 0)
(0 0 0)
(0 0 0)
(0 0 0)
(0 0 0)
(0 0 0)
(0 0 0)
(0 0 0)
(0 0 0)
(0 0 0)
(0 0 0)
(0 0 0)
(0 0 0)
(0 0 0)
(0 0 0)
(0 0 0)
(0 0 0)
(0 0 0)
(0 0 0)
(0 0 0)
(0 0 0)
(0 0 0)
(0 0 0)
(0 0 0)
(0 0 0)
(0 0 0)
(0 0 0)
(0 0 0)
(0 0 0)
(0 0 0)
(0 0 0)
(0 0 0)
(0 0 0)
(0 0 0)
(0 0 0)
(0 0 0)
(0 0 0)
(0 0 0)
(0 0 0)
(0 0 0)
(0 0 0)
(0 0 0)
(0 0 0)
(0 0 0)
(0 0 0)
(0 0 0)
(0 0 0)
(0 0 0)
(0 0 0)
(0 0 0)
(0 0 0)
(0 0 0)
(0 0 0)
(0 0 0)
(0 0 0)
(0 0 0)
(0 0 0)
(0 0 0)
(0 0 0)
(0 0 0)
(0 0 0)
(0 0 0)
(0 0 0)
(0 0 0)
(0 0 0)
(0 0 0)
(0 0 0)
(0 0 0)
(0 0 0)
(0 0 0)
(0 0 0)
(0 0 0)
(0 0 0)
(0 0 0)
(0 0 0)
(0 0 0)
(0 0 0)
(0 0 0)
(0 0 0)
(0 0 0)
(0 0 0)
(0 0 0)
(0 0 0)
(0 0 0)
(0 0 0)
(0 0 0)
(0 0 0)
(0 0 0)
(0 0 0)
(0 0 0)
(0 0 0)
(0 0 0)
(0 0 0)
(0 0 0)
(0 0 0)
(0 0 0)
(0 0 0)
(0 0 0)
(0 0 0)
(0 0 0)
(0 0 0)
(0 0 0)
(0 0 0)
(0 0 0)
(0 0 0)
(0 0 0)
(0 0 0)
(0 0 0)
(0 0 0)
(0 0 0)
(0 0 0)
(0 0 0)
(0 0 0)
(0 0 0)
(0 0 0)
(0 0 0)
(0 0 0)
(0 0 0)
(0 0 0)
(0 0 0)
(0 0 0)
(0 0 0)
(0 0 0)
(0 0 0)
(0 0 0)
(0 0 0)
(0 0 0)
(0 0 0)
(0 0 0)
(0 0 0)
(0 0 0)
(0 0 0)
(0 0 0)
(0 0 0)
(0 0 0)
(0 0 0)
(0 0 0)
(0 0 0)
(0 0 0)
(0 0 0)
(0 0 0)
(0 0 0)
(0 0 0)
(0 0 0)
(0 0 0)
(0 0 0)
(0 0 0)
(0 0 0)
(0 0 0)
(0 0 0)
(0 0 0)
(0 0 0)
(0 0 0)
(0 0 0)
(0 0 0)
(0 0 0)
(0 0 0)
(0 0 0)
(0 0 0)
(0 0 0)
(0 0 0)
(0 0 0)
(0 0 0)
(0 0 0)
(0 0 0)
(0 0 0)
(0 0 0)
(0 0 0)
(0 0 0)
(0 0 0)
(0 0 0)
(0 0 0)
(0 0 0)
(0 0 0)
(0 0 0)
(0 0 0)
(0 0 0)
(0 0 0)
(0 0 0)
(0 0 0)
(0 0 0)
(0 0 0)
(0 0 0)
(0 0 0)
(0 0 0)
(0 0 0)
(0 0 0)
(0 0 0)
(0 0 0)
(0 0 0)
(0 0 0)
(0 0 0)
(0 0 0)
(0 0 0)
(0 0 0)
(0 0 0)
(0 0 0)
(0 0 0)
(0 0 0)
(0 0 0)
(0 0 0)
(0 0 0)
(0 0 0)
(0 0 0)
(0 0 0)
(0 0 0)
(0 0 0)
(0 0 0)
(0 0 0)
(0 0 0)
(0 0 0)
(0 0 0)
(0 0 0)
(0 0 0)
(0 0 0)
(0 0 0)
(0 0 0)
(0 0 0)
(0 0 0)
(0 0 0)
(0 0 0)
(0 0 0)
(0 0 0)
(0 0 0)
(0 0 0)
(0 0 0)
(0 0 0)
(0 0 0)
(0 0 0)
(0 0 0)
(0 0 0)
(0 0 0)
(0 0 0)
(0 0 0)
(0 0 0)
(0 0 0)
(0 0 0)
(0 0 0)
(0 0 0)
(0 0 0)
(0 0 0)
(0 0 0)
(0 0 0)
(0 0 0)
(0 0 0)
(0 0 0)
(0 0 0)
(0 0 0)
(0 0 0)
(0 0 0)
(0 0 0)
(0 0 0)
(0 0 0)
(0 0 0)
(0 0 0)
(0 0 0)
(0 0 0)
(0 0 0)
(0 0 0)
(0 0 0)
(0 0 0)
(0 0 0)
(0 0 0)
(0 0 0)
(0 0 0)
(0 0 0)
(0 0 0)
(0 0 0)
(0 0 0)
(0 0 0)
(0 0 0)
(0 0 0)
(0 0 0)
(0 0 0)
(0 0 0)
(0 0 0)
(0 0 0)
(0 0 0)
(0 0 0)
(0 0 0)
(0 0 0)
(0 0 0)
(0 0 0)
(0 0 0)
(0 0 0)
(0 0 0)
(0 0 0)
(0 0 0)
(0 0 0)
(0 0 0)
(0 0 0)
(0 0 0)
(0 0 0)
(0 0 0)
(0 0 0)
(0 0 0)
(0 0 0)
(0 0 0)
(0 0 0)
(0 0 0)
(0 0 0)
(0 0 0)
(0 0 0)
(0 0 0)
(0 0 0)
(0 0 0)
(0 0 0)
(0 0 0)
(0 0 0)
(0 0 0)
(0 0 0)
(0 0 0)
(0 0 0)
(0 0 0)
(0 0 0)
(0 0 0)
(0 0 0)
(0 0 0)
(0 0 0)
(0 0 0)
(0 0 0)
(0 0 0)
(0 0 0)
(0 0 0)
(0 0 0)
(0 0 0)
(0 0 0)
(0 0 0)
(0 0 0)
(0 0 0)
(0 0 0)
(0 0 0)
(0 0 0)
(0 0 0)
(0 0 0)
(0 0 0)
(0 0 0)
(0 0 0)
(0 0 0)
(0 0 0)
(0 0 0)
(0 0 0)
(0 0 0)
(0 0 0)
(0 0 0)
(0 0 0)
(0 0 0)
(0 0 0)
(0 0 0)
(0 0 0)
(0 0 0)
(0 0 0)
(0 0 0)
(0 0 0)
(0 0 0)
(0 0 0)
(0 0 0)
(0 0 0)
(0 0 0)
(0 0 0)
(0 0 0)
(0 0 0)
(0 0 0)
(0 0 0)
(0 0 0)
(0 0 0)
(0 0 0)
(0 0 0)
(0 0 0)
(0 0 0)
(0 0 0)
(0 0 0)
(0 0 0)
(0 0 0)
(0 0 0)
(0 0 0)
(0 0 0)
(0 0 0)
(0 0 0)
(0 0 0)
(0 0 0)
(0 0 0)
(0 0 0)
(0 0 0)
(0 0 0)
(0 0 0)
(0 0 0)
(0 0 0)
(0 0 0)
(0 0 0)
(0 0 0)
(0 0 0)
(0 0 0)
(0 0 0)
(0 0 0)
(0 0 0)
(0 0 0)
(0 0 0)
(0 0 0)
(0 0 0)
(0 0 0)
(0 0 0)
(0 0 0)
(0 0 0)
(0 0 0)
(0 0 0)
(0 0 0)
(0 0 0)
(0 0 0)
(0 0 0)
(0 0 0)
(0 0 0)
(0 0 0)
(0 0 0)
(0 0 0)
(0 0 0)
(0 0 0)
(0 0 0)
(0 0 0)
(0 0 0)
(0 0 0)
(0 0 0)
(0 0 0)
(0 0 0)
(0 0 0)
(0 0 0)
(0 0 0)
(0 0 0)
(0 0 0)
(0 0 0)
(0 0 0)
(0 0 0)
(0 0 0)
(0 0 0)
(0 0 0)
(0 0 0)
(0 0 0)
(0 0 0)
(0 0 0)
(0 0 0)
(0 0 0)
(0 0 0)
(0 0 0)
(0 0 0)
(0 0 0)
(0 0 0)
(0 0 0)
(0 0 0)
(0 0 0)
(0 0 0)
(0 0 0)
(0 0 0)
(0 0 0)
(0 0 0)
(0 0 0)
(0 0 0)
(0 0 0)
(0 0 0)
(0 0 0)
(0 0 0)
(0 0 0)
(0 0 0)
(0 0 0)
(0 0 0)
(0 0 0)
(0 0 0)
(0 0 0)
(0 0 0)
(0 0 0)
(0 0 0)
(0 0 0)
(0 0 0)
(0 0 0)
(0 0 0)
(0 0 0)
(0 0 0)
(0 0 0)
(0 0 0)
(0 0 0)
(0 0 0)
(0 0 0)
(0 0 0)
(0 0 0)
(0 0 0)
(0 0 0)
(0 9.62965e-35 0)
(0 0 0)
(0 0 0)
(0 0 0)
(0 0 0)
(0 0 0)
(0 0 0)
(0 0 0)
(0 0 0)
(0 0 0)
(0 0 0)
(0 0 0)
(0 0 0)
(0 0 0)
(0 0 0)
(0 0 0)
(0 0 0)
(0 0 0)
(0 0 0)
(0 0 0)
(0 0 0)
(0 0 0)
(0 0 0)
(0 0 0)
(0 0 0)
(0 0 0)
(0 0 0)
(0 0 0)
(0 0 0)
(0 0 0)
(0 0 0)
(0 0 0)
(0 0 0)
(0 0 0)
(0 0 0)
(0 0 0)
(0 0 0)
(0 0 0)
(0 0 0)
(0 0 0)
(0 0 0)
(0 0 0)
(0 0 0)
(0 0 0)
(0 0 0)
(0 0 0)
(0 0 0)
(0 0 0)
(0 0 0)
(0 0 0)
(0 0 0)
(0 0 0)
(0 0 0)
(0 0 0)
(0 0 0)
(0 0 0)
(0 0 0)
(0 0 0)
(0 0 0)
(0 0 0)
(0 0 0)
(0 0 0)
(0 0 0)
(0 0 0)
(0 0 0)
(0 0 0)
(0 0 0)
(0 0 0)
(0 0 0)
(0 0 0)
(0 0 0)
(0 0 0)
(0 0 0)
(0 0 0)
(0 0 0)
(0 0 0)
(0 0 0)
(0 0 0)
(0 0 0)
(0 0 0)
(0.245 0.01 0.255)
(0.245096 0.01 0.254904)
(0.245381 0.01 0.254619)
(0.245843 0.01 0.254157)
(0.246464 0.01 0.253536)
(0.247222 0.01 0.252778)
(0.248087 0.01 0.251913)
(0.249025 0.01 0.250975)
(0.25 0.01 0.25)
(0.250975 0.01 0.249025)
(0.251913 0.01 0.248087)
(0.252778 0.01 0.247222)
(0.253536 0.01 0.246464)
(0.254157 0.01 0.245843)
(0.254619 0.01 0.245381)
(0.254904 0.01 0.245096)
(0.255 0.01 0.245)
(0.254904 0.01 0.245096)
(0.254619 0.01 0.245381)
(0.254157 0.01 0.245843)
(0.253536 0.01 0.246464)
(0.252778 0.01 0.247222)
(0.251913 0.01 0.248087)
(0.250975 0.01 0.249025)
(0.25 0.01 0.25)
(0.249025 0.01 0.250975)
(0.248087 0.01 0.251913)
(0.247222 0.01 0.252778)
(0.246464 0.01 0.253536)
(0.245843 0.01 0.254157)
(0.245381 0.01 0.254619)
(0.245096 0.01 0.254904)
(0.22 0.01 0.23)
(0.220096 0.01 0.229904)
(0.220381 0.01 0.229619)
(0.220843 0.01 0.229157)
(0.221464 0.01 0.228536)
(0.222222 0.01 0.227778)
(0.223087 0.01 0.226913)
(0.224025 0.01 0.225975)
(0.225 0.01 0.225)
(0.225975 0.01 0.224025)
(0.226913 0.01 0.223087)
(0.227778 0.01 0.222222)
(0.228536 0.01 0.221464)
(0.229157 0.01 0.220843)
(0.229619 0.01 0.220381)
(0.229904 0.01 0.220096)
(0.23 0.01 0.22)
(0.229904 0.01 0.220096)
(0.229619 0.01 0.220381)
(0.229157 0.01 0.220843)
(0.228536 0.01 0.221464)
(0.227778 0.01 0.222222)
(0.226913 0.01 0.223087)
(0.225975 0.01 0.224025)
(0.225 0.01 0.225)
(0.224025 0.01 0.225975)
(0.223087 0.01 0.226913)
(0.222222 0.01 0.227778)
(0.221464 0.01 0.228536)
(0.220843 0.01 0.229157)
(0.220381 0.01 0.229619)
(0.220096 0.01 0.229904)
(0.195 0.01 0.205)
(0.195096 0.01 0.204904)
(0.195381 0.01 0.204619)
(0.195843 0.01 0.204157)
(0.196464 0.01 0.203536)
(0.197222 0.01 0.202778)
(0.198087 0.01 0.201913)
(0.199025 0.01 0.200975)
(0.2 0.01 0.2)
(0.200975 0.01 0.199025)
(0.201913 0.01 0.198087)
(0.202778 0.01 0.197222)
(0.203536 0.01 0.196464)
(0.204157 0.01 0.195843)
(0.204619 0.01 0.195381)
(0.204904 0.01 0.195096)
(0.205 0.01 0.195)
(0.204904 0.01 0.195096)
(0.204619 0.01 0.195381)
(0.204157 0.01 0.195843)
(0.203536 0.01 0.196464)
(0.202778 0.01 0.197222)
(0.201913 0.01 0.198087)
(0.200975 0.01 0.199025)
(0.2 0.01 0.2)
(0.199025 0.01 0.200975)
(0.198087 0.01 0.201913)
(0.197222 0.01 0.202778)
(0.196464 0.01 0.203536)
(0.195843 0.01 0.204157)
(0.195381 0.01 0.204619)
(0.195096 0.01 0.204904)
(0.17 0.01 0.18)
(0.170096 0.01 0.179904)
(0.170381 0.01 0.179619)
(0.170843 0.01 0.179157)
(0.171464 0.01 0.178536)
(0.172222 0.01 0.177778)
(0.173087 0.01 0.176913)
(0.174025 0.01 0.175975)
(0.175 0.01 0.175)
(0.175975 0.01 0.174025)
(0.176913 0.01 0.173087)
(0.177778 0.01 0.172222)
(0.178536 0.01 0.171464)
(0.179157 0.01 0.170843)
(0.179619 0.01 0.170381)
(0.179904 0.01 0.170096)
(0.18 0.01 0.17)
(0.179904 0.01 0.170096)
(0.179619 0.01 0.170381)
(0.179157 0.01 0.170843)
(0.178536 0.01 0.171464)
(0.177778 0.01 0.172222)
(0.176913 0.01 0.173087)
(0.175975 0.01 0.174025)
(0.175 0.01 0.175)
(0.174025 0.01 0.175975)
(0.173087 0.01 0.176913)
(0.172222 0.01 0.177778)
(0.171464 0.01 0.178536)
(0.170843 0.01 0.179157)
(0.170381 0.01 0.179619)
(0.170096 0.01 0.179904)
(0.145 0.01 0.155)
(0.145096 0.01 0.154904)
(0.145381 0.01 0.154619)
(0.145843 0.01 0.154157)
(0.146464 0.01 0.153536)
(0.147222 0.01 0.152778)
(0.148087 0.01 0.151913)
(0.149025 0.01 0.150975)
(0.15 0.01 0.15)
(0.150975 0.01 0.149025)
(0.151913 0.01 0.148087)
(0.152778 0.01 0.147222)
(0.153536 0.01 0.146464)
(0.154157 0.01 0.145843)
(0.154619 0.01 0.145381)
(0.154904 0.01 0.145096)
(0.155 0.01 0.145)
(0.154904 0.01 0.145096)
(0.154619 0.01 0.145381)
(0.154157 0.01 0.145843)
(0.153536 0.01 0.146464)
(0.152778 0.01 0.147222)
(0.151913 0.01 0.148087)
(0.150975 0.01 0.149025)
(0.15 0.01 0.15)
(0.149025 0.01 0.150975)
(0.148087 0.01 0.151913)
(0.147222 0.01 0.152778)
(0.146464 0.01 0.153536)
(0.145843 0.01 0.154157)
(0.145381 0.01 0.154619)
(0.145096 0.01 0.154904)
(0.12 0.01 0.13)
(0.120096 0.01 0.129904)
(0.120381 0.01 0.129619)
(0.120843 0.01 0.129157)
(0.121464 0.01 0.128536)
(0.122222 0.01 0.127778)
(0.123087 0.01 0.126913)
(0.124025 0.01 0.125975)
(0.125 0.01 0.125)
(0.125975 0.01 0.124025)
(0.126913 0.01 0.123087)
(0.127778 0.01 0.122222)
(0.128536 0.01 0.121464)
(0.129157 0.01 0.120843)
(0.129619 0.01 0.120381)
(0.129904 0.01 0.120096)
(0.13 0.01 0.12)
(0.129904 0.01 0.120096)
(0.129619 0.01 0.120381)
(0.129157 0.01 0.120843)
(0.128536 0.01 0.121464)
(0.127778 0.01 0.122222)
(0.126913 0.01 0.123087)
(0.125975 0.01 0.124025)
(0.125 0.01 0.125)
(0.124025 0.01 0.125975)
(0.123087 0.01 0.126913)
(0.122222 0.01 0.127778)
(0.121464 0.01 0.128536)
(0.120843 0.01 0.129157)
(0.120381 0.01 0.129619)
(0.120096 0.01 0.129904)
(0.095 0.01 0.105)
(0.0950961 0.01 0.104904)
(0.0953806 0.01 0.104619)
(0.0958427 0.01 0.104157)
(0.0964645 0.01 0.103536)
(0.0972222 0.01 0.102778)
(0.0980866 0.01 0.101913)
(0.0990245 0.01 0.100975)
(0.1 0.01 0.1)
(0.100975 0.01 0.0990245)
(0.101913 0.01 0.0980866)
(0.102778 0.01 0.0972222)
(0.103536 0.01 0.0964645)
(0.104157 0.01 0.0958427)
(0.104619 0.01 0.0953806)
(0.104904 0.01 0.0950961)
(0.105 0.01 0.095)
(0.104904 0.01 0.0950961)
(0.104619 0.01 0.0953806)
(0.104157 0.01 0.0958427)
(0.103536 0.01 0.0964645)
(0.102778 0.01 0.0972222)
(0.101913 0.01 0.0980866)
(0.100975 0.01 0.0990245)
(0.1 0.01 0.1)
(0.0990245 0.01 0.100975)
(0.0980866 0.01 0.101913)
(0.0972222 0.01 0.102778)
(0.0964645 0.01 0.103536)
(0.0958427 0.01 0.104157)
(0.0953806 0.01 0.104619)
(0.0950961 0.01 0.104904)
(0.07 0.01 0.08)
(0.0700961 0.01 0.0799039)
(0.0703806 0.01 0.0796194)
(0.0708427 0.01 0.0791574)
(0.0714645 0.01 0.0785355)
(0.0722222 0.01 0.0777779)
(0.0730866 0.01 0.0769134)
(0.0740245 0.01 0.0759755)
(0.075 0.01 0.075)
(0.0759755 0.01 0.0740245)
(0.0769134 0.01 0.0730866)
(0.0777779 0.01 0.0722222)
(0.0785355 0.01 0.0714645)
(0.0791574 0.01 0.0708427)
(0.0796194 0.01 0.0703806)
(0.0799039 0.01 0.0700961)
(0.08 0.01 0.07)
(0.0799039 0.01 0.0700961)
(0.0796194 0.01 0.0703806)
(0.0791574 0.01 0.0708427)
(0.0785355 0.01 0.0714645)
(0.0777779 0.01 0.0722222)
(0.0769134 0.01 0.0730866)
(0.0759755 0.01 0.0740245)
(0.075 0.01 0.075)
(0.0740245 0.01 0.0759755)
(0.0730866 0.01 0.0769134)
(0.0722222 0.01 0.0777779)
(0.0714645 0.01 0.0785355)
(0.0708427 0.01 0.0791574)
(0.0703806 0.01 0.0796194)
(0.0700961 0.01 0.0799039)
(0.045 0.01 0.055)
(0.0450961 0.01 0.0549039)
(0.0453806 0.01 0.0546194)
(0.0458426 0.01 0.0541574)
(0.0464645 0.01 0.0535355)
(0.0472221 0.01 0.0527779)
(0.0480866 0.01 0.0519134)
(0.0490245 0.01 0.0509755)
(0.05 0.01 0.05)
(0.0509755 0.01 0.0490245)
(0.0519134 0.01 0.0480866)
(0.0527779 0.01 0.0472222)
(0.0535355 0.01 0.0464645)
(0.0541573 0.01 0.0458427)
(0.0546194 0.01 0.0453806)
(0.0549039 0.01 0.0450961)
(0.055 0.01 0.045)
(0.0549039 0.01 0.0450961)
(0.0546194 0.01 0.0453806)
(0.0541573 0.01 0.0458427)
(0.0535355 0.01 0.0464645)
(0.0527779 0.01 0.0472222)
(0.0519134 0.01 0.0480866)
(0.0509755 0.01 0.0490245)
(0.05 0.01 0.05)
(0.0490245 0.01 0.0509755)
(0.0480866 0.01 0.0519134)
(0.0472221 0.01 0.0527779)
(0.0464645 0.01 0.0535355)
(0.0458426 0.01 0.0541574)
(0.0453806 0.01 0.0546194)
(0.0450961 0.01 0.0549039)
(0.02 0.01 0.03)
(0.0200961 0.01 0.0299039)
(0.0203806 0.01 0.0296194)
(0.0208426 0.01 0.0291573)
(0.0214645 0.01 0.0285355)
(0.0222221 0.01 0.0277778)
(0.0230866 0.01 0.0269134)
(0.0240245 0.01 0.0259755)
(0.025 0.01 0.025)
(0.0259755 0.01 0.0240245)
(0.0269134 0.01 0.0230866)
(0.0277779 0.01 0.0222221)
(0.0285355 0.01 0.0214645)
(0.0291573 0.01 0.0208426)
(0.0296194 0.01 0.0203806)
(0.0299039 0.01 0.0200961)
(0.03 0.01 0.02)
(0.0299039 0.01 0.0200961)
(0.0296194 0.01 0.0203806)
(0.0291573 0.01 0.0208426)
(0.0285355 0.01 0.0214645)
(0.0277779 0.01 0.0222221)
(0.0269134 0.01 0.0230866)
(0.0259755 0.01 0.0240245)
(0.025 0.01 0.025)
(0.0240245 0.01 0.0259755)
(0.0230866 0.01 0.0269134)
(0.0222221 0.01 0.0277778)
(0.0214645 0.01 0.0285355)
(0.0208426 0.01 0.0291573)
(0.0203806 0.01 0.0296194)
(0.0200961 0.01 0.0299039)
(-0.005 0.01 0.005)
(-0.00490393 0.01 0.00490393)
(-0.0046194 0.01 0.0046194)
(-0.00415735 0.01 0.00415735)
(-0.00353553 0.01 0.00353553)
(-0.00277785 0.01 0.00277785)
(-0.00191342 0.01 0.00191342)
(-0.000975452 0.01 0.000975452)
(0 0.01 1.28667e-17)
(0.000975452 0.01 -0.000975452)
(0.00191342 0.01 -0.00191342)
(0.00277785 0.01 -0.00277785)
(0.00353553 0.01 -0.00353553)
(0.00415735 0.01 -0.00415735)
(0.0046194 0.01 -0.0046194)
(0.00490393 0.01 -0.00490393)
(0.005 0.01 -0.005)
(0.00490393 0.01 -0.00490393)
(0.0046194 0.01 -0.0046194)
(0.00415735 0.01 -0.00415735)
(0.00353553 0.01 -0.00353553)
(0.00277785 0.01 -0.00277785)
(0.00191342 0.01 -0.00191342)
(0.000975452 0.01 -0.000975452)
(0 0.01 1.16421e-17)
(-0.000975452 0.01 0.000975452)
(-0.00191342 0.01 0.00191342)
(-0.00277785 0.01 0.00277785)
(-0.00353553 0.01 0.00353553)
(-0.00415735 0.01 0.00415735)
(-0.0046194 0.01 0.0046194)
(-0.00490393 0.01 0.00490393)
(-0.03 0.01 -0.02)
(-0.0299039 0.01 -0.0200961)
(-0.0296194 0.01 -0.0203806)
(-0.0291573 0.01 -0.0208426)
(-0.0285355 0.01 -0.0214645)
(-0.0277778 0.01 -0.0222221)
(-0.0269134 0.01 -0.0230866)
(-0.0259755 0.01 -0.0240245)
(-0.025 0.01 -0.025)
(-0.0240245 0.01 -0.0259755)
(-0.0230866 0.01 -0.0269134)
(-0.0222221 0.01 -0.0277778)
(-0.0214645 0.01 -0.0285355)
(-0.0208426 0.01 -0.0291573)
(-0.0203806 0.01 -0.0296194)
(-0.0200961 0.01 -0.0299039)
(-0.02 0.01 -0.03)
(-0.0200961 0.01 -0.0299039)
(-0.0203806 0.01 -0.0296194)
(-0.0208426 0.01 -0.0291573)
(-0.0214645 0.01 -0.0285355)
(-0.0222221 0.01 -0.0277778)
(-0.0230866 0.01 -0.0269134)
(-0.0240245 0.01 -0.0259755)
(-0.025 0.01 -0.025)
(-0.0259755 0.01 -0.0240245)
(-0.0269134 0.01 -0.0230866)
(-0.0277778 0.01 -0.0222221)
(-0.0285355 0.01 -0.0214645)
(-0.0291573 0.01 -0.0208426)
(-0.0296194 0.01 -0.0203806)
(-0.0299039 0.01 -0.0200961)
(-0.055 0.01 -0.045)
(-0.0549039 0.01 -0.0450961)
(-0.0546194 0.01 -0.0453806)
(-0.0541573 0.01 -0.0458426)
(-0.0535355 0.01 -0.0464645)
(-0.0527778 0.01 -0.0472221)
(-0.0519134 0.01 -0.0480866)
(-0.0509755 0.01 -0.0490245)
(-0.05 0.01 -0.05)
(-0.0490245 0.01 -0.0509755)
(-0.0480866 0.01 -0.0519134)
(-0.0472221 0.01 -0.0527778)
(-0.0464645 0.01 -0.0535355)
(-0.0458426 0.01 -0.0541573)
(-0.0453806 0.01 -0.0546194)
(-0.0450961 0.01 -0.0549039)
(-0.045 0.01 -0.055)
(-0.0450961 0.01 -0.0549039)
(-0.0453806 0.01 -0.0546194)
(-0.0458426 0.01 -0.0541573)
(-0.0464645 0.01 -0.0535355)
(-0.0472221 0.01 -0.0527778)
(-0.0480866 0.01 -0.0519134)
(-0.0490245 0.01 -0.0509755)
(-0.05 0.01 -0.05)
(-0.0509755 0.01 -0.0490245)
(-0.0519134 0.01 -0.0480866)
(-0.0527778 0.01 -0.0472221)
(-0.0535355 0.01 -0.0464645)
(-0.0541573 0.01 -0.0458426)
(-0.0546194 0.01 -0.0453806)
(-0.0549039 0.01 -0.0450961)
(-0.08 0.01 -0.07)
(-0.0799039 0.01 -0.0700961)
(-0.0796194 0.01 -0.0703806)
(-0.0791573 0.01 -0.0708426)
(-0.0785355 0.01 -0.0714645)
(-0.0777778 0.01 -0.0722221)
(-0.0769134 0.01 -0.0730866)
(-0.0759755 0.01 -0.0740245)
(-0.075 0.01 -0.075)
(-0.0740245 0.01 -0.0759755)
(-0.0730866 0.01 -0.0769134)
(-0.0722221 0.01 -0.0777778)
(-0.0714645 0.01 -0.0785355)
(-0.0708426 0.01 -0.0791573)
(-0.0703806 0.01 -0.0796194)
(-0.0700961 0.01 -0.0799039)
(-0.07 0.01 -0.08)
(-0.0700961 0.01 -0.0799039)
(-0.0703806 0.01 -0.0796194)
(-0.0708426 0.01 -0.0791573)
(-0.0714645 0.01 -0.0785355)
(-0.0722221 0.01 -0.0777778)
(-0.0730866 0.01 -0.0769134)
(-0.0740245 0.01 -0.0759755)
(-0.075 0.01 -0.075)
(-0.0759755 0.01 -0.0740245)
(-0.0769134 0.01 -0.0730866)
(-0.0777778 0.01 -0.0722221)
(-0.0785355 0.01 -0.0714645)
(-0.0791573 0.01 -0.0708426)
(-0.0796194 0.01 -0.0703806)
(-0.0799039 0.01 -0.0700961)
(-0.105 0.01 -0.095)
(-0.104904 0.01 -0.0950961)
(-0.104619 0.01 -0.0953806)
(-0.104157 0.01 -0.0958426)
(-0.103536 0.01 -0.0964645)
(-0.102778 0.01 -0.0972221)
(-0.101913 0.01 -0.0980866)
(-0.100975 0.01 -0.0990245)
(-0.1 0.01 -0.1)
(-0.0990245 0.01 -0.100975)
(-0.0980866 0.01 -0.101913)
(-0.0972221 0.01 -0.102778)
(-0.0964645 0.01 -0.103536)
(-0.0958426 0.01 -0.104157)
(-0.0953806 0.01 -0.104619)
(-0.0950961 0.01 -0.104904)
(-0.095 0.01 -0.105)
(-0.0950961 0.01 -0.104904)
(-0.0953806 0.01 -0.104619)
(-0.0958426 0.01 -0.104157)
(-0.0964645 0.01 -0.103536)
(-0.0972221 0.01 -0.102778)
(-0.0980866 0.01 -0.101913)
(-0.0990245 0.01 -0.100975)
(-0.1 0.01 -0.1)
(-0.100975 0.01 -0.0990245)
(-0.101913 0.01 -0.0980866)
(-0.102778 0.01 -0.0972221)
(-0.103536 0.01 -0.0964645)
(-0.104157 0.01 -0.0958426)
(-0.104619 0.01 -0.0953806)
(-0.104904 0.01 -0.0950961)
(-0.13 0.01 -0.12)
(-0.129904 0.01 -0.120096)
(-0.129619 0.01 -0.120381)
(-0.129157 0.01 -0.120843)
(-0.128536 0.01 -0.121464)
(-0.127778 0.01 -0.122222)
(-0.126913 0.01 -0.123087)
(-0.125975 0.01 -0.124025)
(-0.125 0.01 -0.125)
(-0.124025 0.01 -0.125975)
(-0.123087 0.01 -0.126913)
(-0.122222 0.01 -0.127778)
(-0.121464 0.01 -0.128536)
(-0.120843 0.01 -0.129157)
(-0.120381 0.01 -0.129619)
(-0.120096 0.01 -0.129904)
(-0.12 0.01 -0.13)
(-0.120096 0.01 -0.129904)
(-0.120381 0.01 -0.129619)
(-0.120843 0.01 -0.129157)
(-0.121464 0.01 -0.128536)
(-0.122222 0.01 -0.127778)
(-0.123087 0.01 -0.126913)
(-0.124025 0.01 -0.125975)
(-0.125 0.01 -0.125)
(-0.125975 0.01 -0.124025)
(-0.126913 0.01 -0.123087)
(-0.127778 0.01 -0.122222)
(-0.128536 0.01 -0.121464)
(-0.129157 0.01 -0.120843)
(-0.129619 0.01 -0.120381)
(-0.129904 0.01 -0.120096)
(-0.155 0.01 -0.145)
(-0.154904 0.01 -0.145096)
(-0.154619 0.01 -0.145381)
(-0.154157 0.01 -0.145843)
(-0.153536 0.01 -0.146464)
(-0.152778 0.01 -0.147222)
(-0.151913 0.01 -0.148087)
(-0.150975 0.01 -0.149025)
(-0.15 0.01 -0.15)
(-0.149025 0.01 -0.150975)
(-0.148087 0.01 -0.151913)
(-0.147222 0.01 -0.152778)
(-0.146464 0.01 -0.153536)
(-0.145843 0.01 -0.154157)
(-0.145381 0.01 -0.154619)
(-0.145096 0.01 -0.154904)
(-0.145 0.01 -0.155)
(-0.145096 0.01 -0.154904)
(-0.145381 0.01 -0.154619)
(-0.145843 0.01 -0.154157)
(-0.146464 0.01 -0.153536)
(-0.147222 0.01 -0.152778)
(-0.148087 0.01 -0.151913)
(-0.149025 0.01 -0.150975)
(-0.15 0.01 -0.15)
(-0.150975 0.01 -0.149025)
(-0.151913 0.01 -0.148087)
(-0.152778 0.01 -0.147222)
(-0.153536 0.01 -0.146464)
(-0.154157 0.01 -0.145843)
(-0.154619 0.01 -0.145381)
(-0.154904 0.01 -0.145096)
(-0.18 0.01 -0.17)
(-0.179904 0.01 -0.170096)
(-0.179619 0.01 -0.170381)
(-0.179157 0.01 -0.170843)
(-0.178536 0.01 -0.171464)
(-0.177778 0.01 -0.172222)
(-0.176913 0.01 -0.173087)
(-0.175975 0.01 -0.174025)
(-0.175 0.01 -0.175)
(-0.174025 0.01 -0.175975)
(-0.173087 0.01 -0.176913)
(-0.172222 0.01 -0.177778)
(-0.171464 0.01 -0.178536)
(-0.170843 0.01 -0.179157)
(-0.170381 0.01 -0.179619)
(-0.170096 0.01 -0.179904)
(-0.17 0.01 -0.18)
(-0.170096 0.01 -0.179904)
(-0.170381 0.01 -0.179619)
(-0.170843 0.01 -0.179157)
(-0.171464 0.01 -0.178536)
(-0.172222 0.01 -0.177778)
(-0.173087 0.01 -0.176913)
(-0.174025 0.01 -0.175975)
(-0.175 0.01 -0.175)
(-0.175975 0.01 -0.174025)
(-0.176913 0.01 -0.173087)
(-0.177778 0.01 -0.172222)
(-0.178536 0.01 -0.171464)
(-0.179157 0.01 -0.170843)
(-0.179619 0.01 -0.170381)
(-0.179904 0.01 -0.170096)
(-0.205 0.01 -0.195)
(-0.204904 0.01 -0.195096)
(-0.204619 0.01 -0.195381)
(-0.204157 0.01 -0.195843)
(-0.203536 0.01 -0.196464)
(-0.202778 0.01 -0.197222)
(-0.201913 0.01 -0.198087)
(-0.200975 0.01 -0.199025)
(-0.2 0.01 -0.2)
(-0.199025 0.01 -0.200975)
(-0.198087 0.01 -0.201913)
(-0.197222 0.01 -0.202778)
(-0.196464 0.01 -0.203536)
(-0.195843 0.01 -0.204157)
(-0.195381 0.01 -0.204619)
(-0.195096 0.01 -0.204904)
(-0.195 0.01 -0.205)
(-0.195096 0.01 -0.204904)
(-0.195381 0.01 -0.204619)
(-0.195843 0.01 -0.204157)
(-0.196464 0.01 -0.203536)
(-0.197222 0.01 -0.202778)
(-0.198087 0.01 -0.201913)
(-0.199025 0.01 -0.200975)
(-0.2 0.01 -0.2)
(-0.200975 0.01 -0.199025)
(-0.201913 0.01 -0.198087)
(-0.202778 0.01 -0.197222)
(-0.203536 0.01 -0.196464)
(-0.204157 0.01 -0.195843)
(-0.204619 0.01 -0.195381)
(-0.204904 0.01 -0.195096)
(-0.23 0.01 -0.22)
(-0.229904 0.01 -0.220096)
(-0.229619 0.01 -0.220381)
(-0.229157 0.01 -0.220843)
(-0.228536 0.01 -0.221464)
(-0.227778 0.01 -0.222222)
(-0.226913 0.01 -0.223087)
(-0.225975 0.01 -0.224025)
(-0.225 0.01 -0.225)
(-0.224025 0.01 -0.225975)
(-0.223087 0.01 -0.226913)
(-0.222222 0.01 -0.227778)
(-0.221464 0.01 -0.228536)
(-0.220843 0.01 -0.229157)
(-0.220381 0.01 -0.229619)
(-0.220096 0.01 -0.229904)
(-0.22 0.01 -0.23)
(-0.220096 0.01 -0.229904)
(-0.220381 0.01 -0.229619)
(-0.220843 0.01 -0.229157)
(-0.221464 0.01 -0.228536)
(-0.222222 0.01 -0.227778)
(-0.223087 0.01 -0.226913)
(-0.224025 0.01 -0.225975)
(-0.225 0.01 -0.225)
(-0.225975 0.01 -0.224025)
(-0.226913 0.01 -0.223087)
(-0.227778 0.01 -0.222222)
(-0.228536 0.01 -0.221464)
(-0.229157 0.01 -0.220843)
(-0.229619 0.01 -0.220381)
(-0.229904 0.01 -0.220096)
(-0.255 0.01 -0.245)
(-0.254904 0.01 -0.245096)
(-0.254619 0.01 -0.245381)
(-0.254157 0.01 -0.245843)
(-0.253536 0.01 -0.246464)
(-0.252778 0.01 -0.247222)
(-0.251913 0.01 -0.248087)
(-0.250975 0.01 -0.249025)
(-0.25 0.01 -0.25)
(-0.249025 0.01 -0.250975)
(-0.248087 0.01 -0.251913)
(-0.247222 0.01 -0.252778)
(-0.246464 0.01 -0.253536)
(-0.245843 0.01 -0.254157)
(-0.245381 0.01 -0.254619)
(-0.245096 0.01 -0.254904)
(-0.245 0.01 -0.255)
(-0.245096 0.01 -0.254904)
(-0.245381 0.01 -0.254619)
(-0.245843 0.01 -0.254157)
(-0.246464 0.01 -0.253536)
(-0.247222 0.01 -0.252778)
(-0.248087 0.01 -0.251913)
(-0.249025 0.01 -0.250975)
(-0.25 0.01 -0.25)
(-0.250975 0.01 -0.249025)
(-0.251913 0.01 -0.248087)
(-0.252778 0.01 -0.247222)
(-0.253536 0.01 -0.246464)
(-0.254157 0.01 -0.245843)
(-0.254619 0.01 -0.245381)
(-0.254904 0.01 -0.245096)
)
;

boundaryField
{
    left_0
    {
        type            calculated;
    }
    left_1
    {
        type            calculated;
    }
    right_0
    {
        type            calculated;
    }
    right_1
    {
        type            calculated;
    }
    beam
    {
        type            empty;
    }
}


// ************************************************************************* //
