/*--------------------------------*- C++ -*----------------------------------*\
| =========                 |                                                 |
| \\      /  F ield         | foam-extend: Open Source CFD                    |
|  \\    /   O peration     | Version:     4.1                                |
|   \\  /    A nd           | Web:         http://www.foam-extend.org         |
|    \\/     M anipulation  |                                                 |
\*---------------------------------------------------------------------------*/
FoamFile
{
    version     2.0;
    format      ascii;
    class       volVectorField;
    location    "0";
    object      refW;
}
// * * * * * * * * * * * * * * * * * * * * * * * * * * * * * * * * * * * * * //

dimensions      [0 1 0 0 0 0 0];

internalField   nonuniform List<vector> 
40
(
(0 0 0)
(0 0 0)
(0 0 0)
(0 0 0)
(0 0 0)
(0 0 0)
(0 0 0)
(0 0 0)
(0 0 0)
(0 0 0)
(0 0 0)
(0 0 0)
(0 0 0)
(0 0 0)
(0 0 0)
(0 0 0)
(0 0 0)
(0 0 0)
(0 0 0)
(0 0 0)
(0.2375 0.01 0.2375)
(0.2125 0.01 0.2125)
(0.1875 0.01 0.1875)
(0.1625 0.01 0.1625)
(0.1375 0.01 0.1375)
(0.1125 0.01 0.1125)
(0.0875 0.01 0.0875)
(0.0625 0.01 0.0625)
(0.0375 0.01 0.0375)
(0.0125 0.01 0.0125)
(-0.0125 0.01 -0.0125)
(-0.0375 0.01 -0.0375)
(-0.0625 0.01 -0.0625)
(-0.0875 0.01 -0.0875)
(-0.1125 0.01 -0.1125)
(-0.1375 0.01 -0.1375)
(-0.1625 0.01 -0.1625)
(-0.1875 0.01 -0.1875)
(-0.2125 0.01 -0.2125)
(-0.2375 0.01 -0.2375)
)
;

boundaryField
{
    left_0
    {
        type            calculated;
        value           uniform (0 0 0);
    }
    left_1
    {
        type            calculated;
        value           uniform (0.25 0.01 0.25);
    }
    right_0
    {
        type            calculated;
        value           uniform (0 0 0);
    }
    right_1
    {
        type            calculated;
        value           uniform (-0.25 0.01 -0.25);
    }
    beam
    {
        type            empty;
    }
}


// ************************************************************************* //
