/*--------------------------------*- C++ -*----------------------------------*\
| =========                 |                                                 |
| \\      /  F ield         | OpenFOAM: The Open Source CFD Toolbox           |
|  \\    /   O peration     | Version:  2312                                  |
|   \\  /    A nd           | Website:  www.openfoam.com                      |
|    \\/     M anipulation  |                                                 |
\*---------------------------------------------------------------------------*/
FoamFile
{
    version     2.0;
    format      ascii;
    arch        "LSB;label=32;scalar=64";
    class       volScalarField;
    location    "0.1";
    object      p;
}
// * * * * * * * * * * * * * * * * * * * * * * * * * * * * * * * * * * * * * //

dimensions      [1 -1 -2 0 0 0 0];

internalField   nonuniform List<scalar> 
299556
(
19.37475302
19.37475907
19.37476516
19.37477132
19.37477756
19.37478392
19.37479042
19.37479708
19.37480393
19.374811
19.37481831
19.37482589
19.37483375
19.37484194
19.37485046
19.37485935
19.37486863
19.37487832
19.37488844
19.37489902
19.37491007
19.37492161
19.37493366
19.37494623
19.37495933
19.37497297
19.37498715
19.37500188
19.37501715
19.37503296
19.37504928
19.3750661
19.3750834
19.37510114
19.37511929
19.37513779
19.37515661
19.37517566
19.37519489
19.37521422
19.37523355
19.37525281
19.37527189
19.37529067
19.37530906
19.37532693
19.37534416
19.37536062
19.37537619
19.37539075
19.37540416
19.37541631
19.37542708
19.37543636
19.37544406
19.37545007
19.37545432
19.37545675
19.37545729
19.37545592
19.3754526
19.37544732
19.37544011
19.37543096
19.37541993
19.37540705
19.3753924
19.37537603
19.37535804
19.3753385
19.37531751
19.37529518
19.37527159
19.37524686
19.37522108
19.37519436
19.37516678
19.37513845
19.37510946
19.37507988
19.37504979
19.37501926
19.37498837
19.37495716
19.3749257
19.37489403
19.37486219
19.37483023
19.37479818
19.37476607
19.37475901
19.3747771
19.3747953
19.3748137
19.37483236
19.37485135
19.37487077
19.37489067
19.37491115
19.37493227
19.37495411
19.37497675
19.37500025
19.37502471
19.37505018
19.37507674
19.37510447
19.37513342
19.37516367
19.37519528
19.3752283
19.37526279
19.37529879
19.37533635
19.3753755
19.37541627
19.37545866
19.37550267
19.37554831
19.37559554
19.37564432
19.3756946
19.3757463
19.37579933
19.37585357
19.37590888
19.37596511
19.37602207
19.37607955
19.37613732
19.37619513
19.3762527
19.37630973
19.3763659
19.37642087
19.3764743
19.37652581
19.37657504
19.3766216
19.37666513
19.37670524
19.37674157
19.37677378
19.37680154
19.37682455
19.37684254
19.37685526
19.37686251
19.37686416
19.37686005
19.37685013
19.37683437
19.37681279
19.37678546
19.37675247
19.37671398
19.37667016
19.37662123
19.37656743
19.37650902
19.37644628
19.3763795
19.37630899
19.37623505
19.37615799
19.37607811
19.37599568
19.375911
19.37582433
19.37573591
19.37564597
19.37555474
19.3754624
19.37536913
19.37527509
19.37518043
19.37508528
19.37498976
19.37489397
19.37479803
19.37476495
19.37479496
19.37482517
19.37485569
19.37488664
19.37491816
19.37495038
19.37498341
19.37501738
19.37505242
19.37508866
19.37512622
19.37516522
19.3752058
19.37524806
19.37529214
19.37533814
19.37538618
19.37543637
19.37548882
19.37554361
19.37560084
19.37566059
19.37572292
19.37578788
19.37585553
19.37592587
19.37599892
19.37607465
19.37615303
19.37623399
19.37631744
19.37640324
19.37649125
19.37658128
19.37667309
19.37676641
19.37686096
19.37695637
19.37705227
19.37714824
19.37724381
19.37733848
19.37743174
19.37752301
19.37761171
19.37769724
19.37777898
19.3778563
19.37792857
19.37799518
19.37805552
19.37810902
19.37815512
19.37819334
19.37822321
19.37824435
19.37825641
19.37825915
19.37825234
19.37823587
19.37820972
19.3781739
19.37812852
19.37807376
19.37800985
19.37793711
19.37785587
19.37776655
19.37766958
19.37756542
19.37745456
19.37733751
19.37721477
19.37708685
19.37695424
19.37681742
19.37667686
19.376533
19.37638624
19.37623697
19.37608554
19.37593228
19.37577748
19.37562141
19.37546431
19.3753064
19.37514787
19.37498892
19.3748297
19.37477079
19.37481255
19.37485457
19.37489702
19.37494009
19.37498394
19.37502875
19.3750747
19.37512196
19.37517072
19.37522113
19.37527338
19.37532764
19.37538409
19.37544289
19.37550421
19.37556821
19.37563505
19.37570488
19.37577785
19.37585408
19.37593371
19.37601684
19.37610356
19.37619396
19.37628808
19.37638595
19.3764876
19.37659298
19.37670205
19.37681472
19.37693085
19.37705026
19.37717275
19.37729804
19.37742582
19.37755572
19.37768732
19.37782014
19.37795363
19.37808723
19.37822028
19.37835209
19.37848193
19.37860901
19.37873252
19.37885163
19.37896545
19.37907313
19.37917378
19.37926655
19.3793506
19.37942511
19.37948934
19.37954259
19.37958421
19.37961367
19.37963049
19.37963432
19.37962486
19.37960195
19.37956554
19.37951568
19.3794525
19.37937626
19.37928729
19.37918601
19.37907291
19.37894854
19.37881353
19.37866851
19.37851418
19.37835123
19.37818036
19.37800228
19.37781769
19.37762724
19.37743159
19.37723134
19.37702707
19.37681932
19.37660857
19.37639527
19.37617984
19.37596264
19.37574401
19.37552426
19.37530366
19.37508246
19.3748609
19.37477651
19.37482975
19.37488333
19.37493746
19.37499237
19.37504828
19.37510542
19.375164
19.37522427
19.37528643
19.37535071
19.37541733
19.37548652
19.37555849
19.37563347
19.37571166
19.37579327
19.3758785
19.37596755
19.3760606
19.37615781
19.37625935
19.37636536
19.37647596
19.37659124
19.37671128
19.37683611
19.37696575
19.37710017
19.37723929
19.377383
19.37753113
19.37768346
19.37783972
19.37799956
19.37816258
19.37832832
19.37849623
19.3786657
19.37883605
19.37900654
19.37917634
19.37934457
19.37951029
19.3796725
19.37983017
19.37998221
19.38012753
19.380265
19.38039352
19.38051198
19.38061931
19.38071447
19.38079651
19.38086452
19.3809177
19.38095535
19.38097686
19.38098179
19.38096974
19.38094053
19.38089408
19.38083045
19.38074982
19.38065251
19.38053896
19.38040968
19.38026532
19.38010659
19.37993427
19.37974919
19.37955223
19.37934427
19.37912622
19.37889897
19.37866342
19.37842041
19.37817077
19.37791528
19.37765466
19.37738961
19.37712075
19.37684864
19.37657382
19.37629676
19.37601788
19.37573757
19.37545618
19.37517404
19.37489145
19.37478207
19.37484647
19.37491127
19.37497674
19.37504315
19.37511078
19.37517989
19.37525076
19.37532365
19.37539884
19.37547659
19.37555718
19.37564088
19.37572794
19.37581863
19.37591321
19.37601194
19.37611504
19.37622277
19.37633533
19.37645294
19.37657578
19.37670404
19.37683784
19.37697732
19.37712256
19.3772736
19.37743046
19.37759311
19.37776146
19.37793537
19.37811464
19.378299
19.37848812
19.37868159
19.37887893
19.37907955
19.37928282
19.379488
19.37969425
19.37990067
19.38010628
19.38031001
19.3805107
19.38070717
19.38089814
19.38108231
19.38125835
19.38142491
19.38158062
19.38172416
19.38185422
19.38196955
19.38206899
19.38215143
19.38221591
19.38226157
19.38228769
19.38229371
19.38227917
19.38224382
19.3821876
19.38211055
19.38201292
19.38189508
19.38175755
19.38160099
19.38142617
19.38123394
19.38102526
19.38080113
19.38056262
19.3803108
19.38004678
19.37977164
19.37948645
19.37919225
19.37889004
19.37858076
19.37826529
19.37794447
19.37761904
19.37728971
19.37695711
19.37662179
19.37628429
19.37594507
19.37560455
19.37526313
19.37492116
19.37478743
19.37486258
19.37493821
19.37501462
19.37509214
19.37517107
19.37525173
19.37533444
19.37541951
19.37550727
19.37559802
19.37569208
19.37578976
19.37589138
19.37599724
19.37610764
19.37622287
19.37634322
19.37646896
19.37660036
19.37673765
19.37688105
19.37703078
19.37718699
19.37734982
19.37751939
19.37769574
19.3778789
19.37806881
19.37826539
19.37846848
19.37867783
19.37889314
19.37911402
19.37934
19.3795705
19.37980487
19.38004233
19.38028204
19.38052303
19.38076423
19.3810045
19.38124259
19.38147715
19.38170679
19.38193003
19.38214534
19.38235116
19.3825459
19.38272798
19.38289585
19.38304796
19.38318287
19.3832992
19.38339566
19.38347113
19.38352459
19.38355519
19.3835623
19.38354536
19.3835041
19.38343842
19.3833484
19.38323431
19.38309659
19.38293585
19.38275287
19.38254854
19.38232388
19.38207999
19.38181806
19.38153933
19.38124507
19.38093656
19.38061507
19.38028187
19.37993815
19.3795851
19.3792238
19.3788553
19.37848056
19.37810047
19.37771583
19.37732738
19.37693578
19.37654165
19.37614551
19.37574787
19.37534918
19.37494986
19.37479255
19.37487801
19.374964
19.37505088
19.37513902
19.37522876
19.37532048
19.37541452
19.37551126
19.37561104
19.37571423
19.37582118
19.37593226
19.37604781
19.37616819
19.37629373
19.37642477
19.37656163
19.37670463
19.37685406
19.3770102
19.37717329
19.37734358
19.37752125
19.37770646
19.37789934
19.37809994
19.37830829
19.37852434
19.37874799
19.37897904
19.37921724
19.37946223
19.37971358
19.37997074
19.38023307
19.38049982
19.38077011
19.38104298
19.38131732
19.38159194
19.38186551
19.38213662
19.38240375
19.38266529
19.38291956
19.38316482
19.38339929
19.38362117
19.38382864
19.38401993
19.3841933
19.38434707
19.38447968
19.38458967
19.38467573
19.38473673
19.38477169
19.38477988
19.38476066
19.38471373
19.38463898
19.3845365
19.38440658
19.38424976
19.38406671
19.38385833
19.38362564
19.3833698
19.38309207
19.38279381
19.38247644
19.38214139
19.38179015
19.38142415
19.38104483
19.38065358
19.38025171
19.37984049
19.3794211
19.37899463
19.37856208
19.37812439
19.37768238
19.37723682
19.37678837
19.37633767
19.37588526
19.37543167
19.37497738
19.37479742
19.37489265
19.37498847
19.37508529
19.3751835
19.37528351
19.37538572
19.37549052
19.37559832
19.37570952
19.37582451
19.37594371
19.3760675
19.37619627
19.37633043
19.37647034
19.37661639
19.37676893
19.37692831
19.37709486
19.3772689
19.37745069
19.37764051
19.37783857
19.37804504
19.37826006
19.3784837
19.378716
19.37895689
19.37920626
19.37946391
19.37972954
19.38000276
19.38028309
19.38056993
19.38086255
19.38116011
19.38146166
19.38176611
19.38207223
19.38237868
19.38268399
19.38298658
19.38328475
19.38357671
19.38386059
19.38413443
19.38439626
19.38464404
19.38487577
19.38508944
19.38528312
19.38545492
19.38560311
19.38572604
19.38582226
19.38589048
19.38592963
19.38593888
19.38591752
19.38586521
19.38578182
19.38566746
19.38552247
19.38534743
19.38514312
19.38491052
19.38465078
19.38436521
19.38405522
19.38372233
19.38336812
19.38299422
19.38260225
19.38219385
19.38177061
19.38133408
19.38088575
19.38042701
19.37995918
19.37948348
19.37900103
19.37851287
19.37801992
19.37752303
19.37702294
19.37652035
19.37601588
19.3755101
19.37500354
19.37480199
19.37490641
19.37501147
19.37511763
19.37522532
19.37533498
19.37544705
19.37556196
19.37568016
19.37580209
19.37592819
19.37605889
19.37619463
19.37633584
19.37648296
19.37663639
19.37679655
19.37696383
19.37713862
19.37732128
19.37751215
19.37771154
19.37791974
19.37813697
19.37836345
19.37859931
19.37884465
19.37909949
19.37936377
19.37963737
19.37992006
19.38021154
19.38051136
19.38081901
19.38113381
19.38145499
19.38178162
19.38211266
19.38244689
19.382783
19.3831195
19.38345478
19.38378711
19.38411461
19.38443533
19.38474719
19.38504807
19.38533576
19.38560806
19.38586274
19.38609761
19.38631051
19.38649941
19.38666236
19.38679757
19.38690342
19.38697851
19.38702165
19.38703193
19.38700857
19.3869512
19.38685967
19.3867341
19.38657488
19.38638262
19.38615822
19.38590274
19.38561745
19.38530379
19.38496333
19.38459773
19.38420874
19.38379813
19.38336773
19.3829193
19.38245462
19.38197538
19.38148321
19.38097965
19.38046614
19.37994403
19.37941456
19.37887883
19.37833788
19.37779262
19.37724389
19.37669242
19.3761389
19.37558396
19.37502817
19.37480625
19.3749192
19.37503287
19.37514771
19.37526421
19.37538285
19.37550408
19.3756284
19.37575628
19.37588819
19.37602461
19.37616602
19.37631288
19.37646566
19.37662483
19.37679083
19.37696412
19.37714513
19.37733425
19.37753191
19.37773844
19.37795421
19.37817951
19.37841461
19.37865971
19.37891499
19.37918053
19.37945636
19.37974244
19.38003861
19.38034465
19.38066021
19.38098484
19.38131796
19.38165885
19.38200667
19.38236042
19.38271897
19.38308102
19.38344513
19.3838097
19.38417299
19.3845331
19.38488803
19.38523563
19.38557367
19.38589984
19.38621175
19.386507
19.38678318
19.3870379
19.38726883
19.38747374
19.38765054
19.38779727
19.38791218
19.38799373
19.38804064
19.38805191
19.38802671
19.38796462
19.38786549
19.38772946
19.38755692
19.38734859
19.3871054
19.38682852
19.38651935
19.38617944
19.38581049
19.38541432
19.38499283
19.38454794
19.38408163
19.38359582
19.38309244
19.38257333
19.38204024
19.38149486
19.38093874
19.38037334
19.3798
19.37921992
19.37863421
19.37804387
19.37744979
19.37685277
19.37625354
19.37565279
19.37505113
19.37481016
19.37493096
19.37505252
19.37517534
19.37529994
19.37542681
19.37555648
19.37568944
19.3758262
19.37596728
19.37611319
19.37626443
19.3764215
19.37658492
19.37675516
19.37693272
19.37711808
19.37731169
19.377514
19.37772543
19.37794637
19.3781772
19.37841823
19.37866974
19.37893198
19.37920511
19.37948923
19.37978438
19.38009051
19.38040746
19.38073499
19.38107273
19.38142019
19.38177676
19.38214169
19.38251405
19.38289281
19.38327672
19.38366442
19.38405436
19.38444483
19.38483395
19.38521972
19.38559996
19.38597239
19.38633462
19.38668416
19.38701846
19.38733493
19.38763099
19.38790408
19.3881517
19.38837145
19.38856107
19.38871848
19.38884178
19.38892934
19.38897976
19.38899198
19.38896509
19.38889867
19.38879254
19.38864685
19.38846204
19.38823886
19.38797832
19.3876817
19.38735047
19.38698632
19.38659107
19.38616669
19.38571519
19.38523867
19.38473923
19.38421895
19.38367988
19.38312399
19.38255319
19.38196926
19.38137388
19.3807686
19.38015484
19.37953391
19.37890699
19.37827514
19.37763931
19.37700035
19.37635906
19.37571614
19.37507226
19.37481369
19.3749416
19.3750703
19.37520035
19.37533227
19.37546661
19.3756039
19.37574468
19.37588949
19.37603888
19.37619337
19.37635351
19.37651984
19.37669288
19.37687315
19.37706118
19.37725746
19.37746249
19.37767673
19.37790064
19.37813464
19.3783791
19.37863438
19.37890078
19.37917854
19.37946784
19.37976881
19.38008148
19.38040578
19.38074158
19.38108859
19.38144645
19.38181463
19.38219249
19.38257923
19.38297388
19.38337534
19.38378229
19.3841933
19.3846067
19.38502071
19.38543333
19.38584242
19.3862457
19.38664073
19.38702497
19.38739579
19.38775048
19.38808629
19.38840047
19.3886903
19.38895313
19.38918641
19.38938775
19.3895549
19.38968588
19.38977893
19.38983257
19.38984567
19.38981728
19.38974694
19.38963445
19.38947998
19.389284
19.38904732
19.388771
19.38845641
19.38810512
19.38771891
19.38729975
19.3868497
19.38637092
19.38586564
19.38533608
19.38478447
19.38421297
19.38362368
19.38301862
19.38239969
19.38176865
19.38112716
19.38047673
19.37981873
19.37915442
19.3784849
19.3778112
19.37713421
19.37645475
19.37577359
19.37509142
19.37481684
19.37495106
19.37508612
19.37522259
19.37536102
19.37550199
19.37564606
19.3757938
19.37594576
19.37610253
19.37626466
19.37643272
19.37660727
19.37678886
19.37697806
19.37717539
19.37738139
19.37759658
19.37782144
19.37805645
19.37830205
19.37855865
19.37882661
19.37910625
19.37939782
19.37970153
19.3800175
19.38034576
19.38068625
19.38103882
19.3814032
19.38177898
19.38216563
19.38256246
19.38296864
19.38338316
19.38380486
19.38423237
19.38466416
19.38509851
19.38553352
19.38596712
19.38639705
19.3868209
19.38723612
19.38764004
19.38802988
19.3884028
19.38875591
19.3890863
19.38939112
19.38966757
19.38991298
19.3901248
19.3903007
19.39043856
19.39053654
19.39059308
19.390607
19.39057728
19.39050343
19.39038528
19.39022298
19.39001703
19.38976828
19.38947787
19.38914722
19.38877801
19.38837211
19.38793159
19.38745861
19.38695548
19.38642452
19.38586808
19.3852885
19.38468806
19.38406898
19.38343336
19.38278321
19.38212038
19.38144661
19.38076349
19.38007246
19.37937482
19.37867175
19.3779643
19.37725343
19.37653999
19.37582476
19.37510848
19.37481957
19.37495928
19.37509986
19.37524191
19.375386
19.37553274
19.3756827
19.37583648
19.37599466
19.37615784
19.37632661
19.37650155
19.37668324
19.37687228
19.37706923
19.37727465
19.3774891
19.37771312
19.37794721
19.37819187
19.37844757
19.37871472
19.37899371
19.37928486
19.37958846
19.3799047
19.38023371
19.38057553
19.38093012
19.38129729
19.38167678
19.38206816
19.38247089
19.38288424
19.38330736
19.3837392
19.38417853
19.38462395
19.38507387
19.38552648
19.38597982
19.38643172
19.38687982
19.38732163
19.38775448
19.38817559
19.38858205
19.38897089
19.38933911
19.38968368
19.3900016
19.39028997
19.39054598
19.39076698
19.39095053
19.39109442
19.39119673
19.39125583
19.39127047
19.3912396
19.39116272
19.39103963
19.39087049
19.39065585
19.39039657
19.39009386
19.3897492
19.38936434
19.38894125
19.38848208
19.38798911
19.38746473
19.38691136
19.38633148
19.38572751
19.38510184
19.38445678
19.38379453
19.38311717
19.38242664
19.38172475
19.38101316
19.38029335
19.37956669
19.3788344
19.37809758
19.37735721
19.37661418
19.3758693
19.37512334
19.37482187
19.3749662
19.37511144
19.37525819
19.37540706
19.37555866
19.37571359
19.37587246
19.37603589
19.37620448
19.37637884
19.37655958
19.3767473
19.37694261
19.37714609
19.37735834
19.37757991
19.37781137
19.37805325
19.37830606
19.37857027
19.37884632
19.37913461
19.37943548
19.37974922
19.38007603
19.38041605
19.38076933
19.3811358
19.38151531
19.38190756
19.38231212
19.38272842
19.38315573
19.38359316
19.38403962
19.38449387
19.38495443
19.38541967
19.38588773
19.38635656
19.38682394
19.38728743
19.38774444
19.38819221
19.38862786
19.38904839
19.38945073
19.38983175
19.39018833
19.39051737
19.39081584
19.39108084
19.39130963
19.39149968
19.39164869
19.39175468
19.39181595
19.39183121
19.39179939
19.39171994
19.39159267
19.39141776
19.39119576
19.39092757
19.39061445
19.39025793
19.38985983
19.3894222
19.38894725
19.38843736
19.38789499
19.38732268
19.38672296
19.38609837
19.38545137
19.38478434
19.38409957
19.38339922
19.38268529
19.38195964
19.38122398
19.38047987
19.3797287
19.37897174
19.37821011
19.37744483
19.37667682
19.37590691
19.37513588
19.37482373
19.3749718
19.3751208
19.37527135
19.37542407
19.37557959
19.37573853
19.37590152
19.37606918
19.37624213
19.37642101
19.37660644
19.37679903
19.37699941
19.37720817
19.37742593
19.37765326
19.37789073
19.3781389
19.37839829
19.37866937
19.37895262
19.37924843
19.37955715
19.37987908
19.38021444
19.38056336
19.3809259
19.38130199
19.38169146
19.38209403
19.38250924
19.38293653
19.38337513
19.38382414
19.38428244
19.38474874
19.38522157
19.38569921
19.38617977
19.38666116
19.38714107
19.38761703
19.38808635
19.38854621
19.38899365
19.3894256
19.38983888
19.39023028
19.39059661
19.39093465
19.39124132
19.39151362
19.39174874
19.39194406
19.39209724
19.39220622
19.39226926
19.39228504
19.39225245
19.39217093
19.39204028
19.39186069
19.39163272
19.39135732
19.39103576
19.39066964
19.39026081
19.38981139
19.38932365
19.38880005
19.38824312
19.38765546
19.38703969
19.38639839
19.38573411
19.38504931
19.38434632
19.38362735
19.38289448
19.3821496
19.38139449
19.38063071
19.37985972
19.3790828
19.37830111
19.37751569
19.37672747
19.37593731
19.37514602
19.37482514
19.37497603
19.37512787
19.37528128
19.37543692
19.3755954
19.37575738
19.37592347
19.37609433
19.37627059
19.37645288
19.37664185
19.37683812
19.37704232
19.37725507
19.37747699
19.37770867
19.37795069
19.37820362
19.37846797
19.37874426
19.37903294
19.37933443
19.37964909
19.37997722
19.38031903
19.38067469
19.38104422
19.38142758
19.3818246
19.38223496
19.38265824
19.38309383
19.38354098
19.38399874
19.384466
19.38494144
19.38542354
19.38591057
19.3864006
19.38689149
19.3873809
19.38786629
19.38834494
19.38881397
19.38927035
19.38971094
19.39013251
19.39053179
19.3909055
19.39125038
19.39156327
19.39184111
19.39208103
19.39228035
19.39243669
19.39254794
19.39261233
19.39262851
19.39259534
19.39251225
19.39237905
19.39219591
19.39196343
19.39168256
19.39135461
19.39098121
19.39056426
19.3901059
19.38960849
19.3890745
19.38850654
19.38790725
19.38727932
19.38662538
19.38594802
19.38524976
19.38453297
19.38379992
19.38305271
19.3822933
19.38152345
19.3807448
19.37995881
19.3791668
19.37836993
19.37756927
19.37676578
19.37596031
19.37515369
19.37482608
19.37497886
19.3751326
19.37528794
19.37544553
19.375606
19.37577001
19.37593819
19.37611119
19.37628965
19.37647424
19.37666557
19.37686431
19.37707108
19.37728651
19.37751122
19.37774581
19.37799088
19.37824699
19.37851468
19.37879445
19.37908678
19.37939208
19.37971071
19.38004299
19.38038914
19.38074931
19.38112353
19.38151177
19.38191384
19.38232944
19.38275813
19.38319929
19.38365217
19.38411581
19.38458908
19.38507064
19.38555896
19.3860523
19.38654868
19.38704596
19.38754174
19.38803347
19.38851838
19.38899356
19.38945594
19.38990233
19.39032948
19.39073405
19.39111272
19.3914622
19.39177927
19.39206083
19.39230397
19.39250599
19.39266446
19.39277723
19.39284253
19.39285898
19.39282542
19.39274128
19.39260636
19.39242085
19.39218534
19.3919008
19.39156856
19.39119027
19.39076786
19.39030351
19.38979959
19.38925863
19.38868327
19.38807618
19.38744008
19.38677765
19.38609152
19.38538422
19.38465818
19.38391568
19.38315885
19.38238967
19.38160995
19.38082132
19.38002527
19.37922313
19.37841609
19.37760521
19.37679147
19.37597573
19.37515883
19.37482655
19.37498028
19.37513498
19.37529128
19.37544985
19.37561132
19.37577634
19.37594556
19.37611964
19.37629922
19.37648495
19.37667747
19.37687745
19.3770855
19.37730227
19.37752838
19.37776444
19.37801104
19.37826874
19.3785381
19.37881963
19.37911378
19.37942099
19.37974163
19.38007599
19.38042431
19.38078674
19.38116332
19.381554
19.38195861
19.38237684
19.38280823
19.3832522
19.38370795
19.38417454
19.38465082
19.38513546
19.38562691
19.38612341
19.38662299
19.38712346
19.38762245
19.38811735
19.38860541
19.38908368
19.38954907
19.38999839
19.39042833
19.39083556
19.39121672
19.39156851
19.39188768
19.39217111
19.39241587
19.39261925
19.39277878
19.39289233
19.39295808
19.39297467
19.39294091
19.39285625
19.39272047
19.39253376
19.39229673
19.39201034
19.39167595
19.3912952
19.39087005
19.39040269
19.38989551
19.38935105
19.38877197
19.38816096
19.38752076
19.38685407
19.38616353
19.3854517
19.38472101
19.38397377
19.38321212
19.38243804
19.38165336
19.38085972
19.38005862
19.3792514
19.37843925
19.37762325
19.37680436
19.37598347
19.37516141
19.37482655
19.37498028
19.37513498
19.37529128
19.37544985
19.37561132
19.37577634
19.37594556
19.37611964
19.37629922
19.37648495
19.37667747
19.37687745
19.3770855
19.37730227
19.37752838
19.37776444
19.37801104
19.37826874
19.3785381
19.37881963
19.37911378
19.37942099
19.37974163
19.38007599
19.38042431
19.38078674
19.38116332
19.381554
19.38195861
19.38237684
19.38280823
19.3832522
19.38370795
19.38417454
19.38465082
19.38513546
19.38562691
19.38612341
19.38662299
19.38712346
19.38762245
19.38811735
19.38860541
19.38908368
19.38954907
19.38999839
19.39042833
19.39083556
19.39121672
19.39156851
19.39188768
19.39217111
19.39241587
19.39261925
19.39277878
19.39289233
19.39295808
19.39297467
19.39294091
19.39285625
19.39272047
19.39253376
19.39229673
19.39201034
19.39167595
19.3912952
19.39087005
19.39040269
19.38989551
19.38935105
19.38877197
19.38816096
19.38752076
19.38685407
19.38616353
19.3854517
19.38472101
19.38397377
19.38321212
19.38243804
19.38165336
19.38085972
19.38005862
19.3792514
19.37843925
19.37762325
19.37680436
19.37598347
19.37516141
19.37482608
19.37497886
19.3751326
19.37528794
19.37544553
19.375606
19.37577001
19.37593819
19.37611119
19.37628965
19.37647424
19.37666557
19.37686431
19.37707108
19.37728651
19.37751122
19.37774581
19.37799088
19.37824699
19.37851468
19.37879445
19.37908678
19.37939208
19.37971071
19.38004299
19.38038914
19.38074931
19.38112353
19.38151177
19.38191384
19.38232944
19.38275813
19.38319929
19.38365217
19.38411581
19.38458908
19.38507064
19.38555896
19.3860523
19.38654868
19.38704596
19.38754174
19.38803347
19.38851838
19.38899356
19.38945594
19.38990233
19.39032948
19.39073405
19.39111272
19.3914622
19.39177927
19.39206083
19.39230397
19.39250599
19.39266446
19.39277724
19.39284254
19.39285898
19.39282542
19.39274129
19.39260637
19.39242085
19.39218534
19.3919008
19.39156856
19.39119027
19.39076786
19.39030351
19.38979959
19.38925863
19.38868327
19.38807618
19.38744008
19.38677765
19.38609152
19.38538422
19.38465818
19.38391568
19.38315885
19.38238967
19.38160995
19.38082132
19.38002527
19.37922313
19.37841609
19.37760521
19.37679147
19.37597573
19.37515883
19.37482514
19.37497603
19.37512786
19.37528128
19.37543692
19.3755954
19.37575738
19.37592347
19.37609433
19.37627059
19.37645288
19.37664185
19.37683812
19.37704232
19.37725507
19.37747699
19.37770867
19.37795069
19.37820362
19.37846797
19.37874426
19.37903294
19.37933443
19.37964909
19.37997722
19.38031903
19.38067469
19.38104422
19.38142758
19.3818246
19.38223496
19.38265824
19.38309383
19.38354098
19.38399874
19.384466
19.38494144
19.38542354
19.38591057
19.3864006
19.38689149
19.3873809
19.38786629
19.38834494
19.38881397
19.38927035
19.38971094
19.39013251
19.39053179
19.3909055
19.39125039
19.39156327
19.39184111
19.39208103
19.39228035
19.39243669
19.39254794
19.39261233
19.39262851
19.39259534
19.39251225
19.39237905
19.39219591
19.39196343
19.39168256
19.39135461
19.39098121
19.39056426
19.3901059
19.38960849
19.3890745
19.38850654
19.38790726
19.38727932
19.38662538
19.38594802
19.38524976
19.38453297
19.38379992
19.38305272
19.3822933
19.38152345
19.3807448
19.37995881
19.3791668
19.37836993
19.37756927
19.37676578
19.37596031
19.37515369
19.37482373
19.3749718
19.3751208
19.37527135
19.37542407
19.37557959
19.37573853
19.37590152
19.37606918
19.37624213
19.37642101
19.37660644
19.37679903
19.3769994
19.37720817
19.37742593
19.37765326
19.37789073
19.3781389
19.37839829
19.37866937
19.37895262
19.37924843
19.37955715
19.37987908
19.38021444
19.38056336
19.3809259
19.38130199
19.38169146
19.38209403
19.38250924
19.38293653
19.38337513
19.38382414
19.38428244
19.38474874
19.38522156
19.38569921
19.38617977
19.38666116
19.38714107
19.38761703
19.38808635
19.38854621
19.38899365
19.3894256
19.38983888
19.39023029
19.39059661
19.39093466
19.39124132
19.39151363
19.39174874
19.39194407
19.39209724
19.39220622
19.39226926
19.39228505
19.39225245
19.39217093
19.39204028
19.39186069
19.39163273
19.39135732
19.39103576
19.39066964
19.39026081
19.38981139
19.38932366
19.38880005
19.38824312
19.38765546
19.38703969
19.38639839
19.38573411
19.38504931
19.38434632
19.38362735
19.38289448
19.38214961
19.38139449
19.38063071
19.37985972
19.3790828
19.37830111
19.37751569
19.37672747
19.37593731
19.37514602
19.37482187
19.3749662
19.37511144
19.37525819
19.37540706
19.37555866
19.37571359
19.37587246
19.37603589
19.37620448
19.37637884
19.37655958
19.3767473
19.37694261
19.37714609
19.37735834
19.37757991
19.37781137
19.37805325
19.37830606
19.37857027
19.37884632
19.37913461
19.37943548
19.37974922
19.38007603
19.38041605
19.38076933
19.3811358
19.38151531
19.38190756
19.38231212
19.38272842
19.38315573
19.38359316
19.38403962
19.38449387
19.38495443
19.38541967
19.38588773
19.38635656
19.38682394
19.38728743
19.38774444
19.38819221
19.38862786
19.38904839
19.38945073
19.38983175
19.39018833
19.39051737
19.39081584
19.39108084
19.39130963
19.39149968
19.3916487
19.39175468
19.39181595
19.39183122
19.39179939
19.39171995
19.39159268
19.39141776
19.39119576
19.39092757
19.39061445
19.39025793
19.38985984
19.3894222
19.38894725
19.38843736
19.38789499
19.38732268
19.38672296
19.38609837
19.38545137
19.38478434
19.38409957
19.38339922
19.38268529
19.38195964
19.38122398
19.38047987
19.3797287
19.37897174
19.37821011
19.37744483
19.37667682
19.37590691
19.37513588
19.37481957
19.37495928
19.37509986
19.37524191
19.375386
19.37553274
19.3756827
19.37583648
19.37599466
19.37615784
19.37632661
19.37650155
19.37668324
19.37687228
19.37706923
19.37727465
19.3774891
19.37771311
19.37794721
19.37819187
19.37844757
19.37871472
19.37899371
19.37928486
19.37958846
19.37990469
19.38023371
19.38057553
19.38093011
19.38129729
19.38167678
19.38206816
19.38247089
19.38288424
19.38330736
19.3837392
19.38417853
19.38462395
19.38507387
19.38552648
19.38597982
19.38643172
19.38687982
19.38732163
19.38775448
19.38817559
19.38858205
19.38897089
19.38933911
19.38968368
19.39000161
19.39028997
19.39054598
19.39076698
19.39095053
19.39109443
19.39119673
19.39125583
19.39127047
19.39123961
19.39116272
19.39103963
19.39087049
19.39065585
19.39039657
19.39009386
19.3897492
19.38936435
19.38894126
19.38848208
19.38798911
19.38746473
19.38691137
19.38633148
19.38572751
19.38510184
19.38445678
19.38379453
19.38311717
19.38242664
19.38172475
19.38101316
19.38029335
19.37956669
19.3788344
19.37809758
19.37735721
19.37661418
19.3758693
19.37512334
19.37481684
19.37495106
19.37508612
19.37522259
19.37536102
19.37550199
19.37564606
19.3757938
19.37594576
19.37610253
19.37626466
19.37643272
19.37660727
19.37678886
19.37697806
19.37717539
19.37738139
19.37759658
19.37782144
19.37805645
19.37830205
19.37855865
19.37882661
19.37910625
19.37939782
19.37970153
19.3800175
19.38034576
19.38068625
19.38103882
19.3814032
19.38177898
19.38216562
19.38256246
19.38296864
19.38338316
19.38380485
19.38423236
19.38466416
19.38509851
19.38553352
19.38596712
19.38639705
19.3868209
19.38723612
19.38764004
19.38802989
19.3884028
19.38875591
19.3890863
19.38939112
19.38966758
19.38991298
19.3901248
19.3903007
19.39043856
19.39053654
19.39059308
19.390607
19.39057728
19.39050344
19.39038528
19.39022298
19.39001704
19.38976829
19.38947787
19.38914723
19.38877801
19.38837212
19.38793159
19.38745862
19.38695548
19.38642452
19.38586808
19.3852885
19.38468807
19.38406898
19.38343336
19.38278321
19.38212038
19.38144661
19.38076349
19.38007246
19.37937482
19.37867175
19.3779643
19.37725343
19.37653999
19.37582476
19.37510848
19.37481369
19.3749416
19.3750703
19.37520035
19.37533227
19.37546661
19.3756039
19.37574468
19.37588949
19.37603888
19.37619337
19.37635351
19.37651984
19.37669287
19.37687315