/*--------------------------------*- C++ -*----------------------------------*\
| =========                 |                                                 |
| \\      /  F ield         | OpenFOAM: The Open Source CFD Toolbox           |
|  \\    /   O peration     | Version:  2312                                  |
|   \\  /    A nd           | Website:  www.openfoam.com                      |
|    \\/     M anipulation  |                                                 |
\*---------------------------------------------------------------------------*/
FoamFile
{
    version     2.0;
    format      ascii;
    arch        "LSB;label=32;scalar=64";
    class       surfaceVectorField;
    location    "0.1/beam";
    object      Gamma;
}
// * * * * * * * * * * * * * * * * * * * * * * * * * * * * * * * * * * * * * //

dimensions      [0 0 0 0 0 0 0];

oriented        oriented;

internalField   nonuniform List<vector> 
59
(
(0.0002405707219 -1.626437619e-18 -2.809561123e-08)
(0.0002405707768 -1.540143569e-18 -2.659087683e-08)
(0.0002405708685 -1.394707931e-18 -2.407947726e-08)
(0.0002405709973 -1.187934526e-18 -2.055618053e-08)
(0.0002405711634 -9.171299462e-19 -1.601377415e-08)
(0.0002405713672 -5.79596589e-19 -1.044331754e-08)
(0.000240571609 -1.728283505e-19 -3.834816705e-09)
(0.000240571889 3.045973331e-19 3.82148188e-09)
(0.0002405722071 8.525416363e-19 1.253325556e-08)
(0.0002405725632 1.468767682e-18 2.230315898e-08)
(0.0002405729568 2.147910162e-18 3.312473051e-08)
(0.0002405733873 2.880590631e-18 4.497722101e-08)
(0.0002405738541 3.653100488e-18 5.781892309e-08)
(0.0002405743563 4.446544759e-18 7.157968964e-08)
(0.0002405748932 5.236338689e-18 8.615222219e-08)
(0.0002405754645 5.99187688e-18 1.01383312e-07)
(0.0002405760705 6.676596412e-18 1.170651387e-07)
(0.0002405767126 7.247811771e-18 1.32927965e-07)
(0.0002405773937 7.65750403e-18 1.486350209e-07)
(0.0002405781188 7.85382978e-18 1.637810348e-07)
(0.0002405788954 7.782052559e-18 1.778953512e-07)
(0.0002405797341 7.386860881e-18 1.904506366e-07)
(0.0002405806492 6.615179748e-18 2.008792737e-07)
(0.0002405816589 5.418478554e-18 2.085985164e-07)
(0.0002405827843 3.757793228e-18 2.130324127e-07)
(0.0002405840508 1.605367536e-18 2.136586845e-07)
(0.0002405854848 -1.04823363e-18 2.100413189e-07)
(0.0002405871148 -4.194050943e-18 2.018734238e-07)
(0.0002405889668 -7.796010445e-18 1.890241224e-07)
(0.0002405910651 -1.179997046e-17 1.715574739e-07)
(0.000240593427 -1.610558985e-17 1.497803234e-07)
(0.0002405960643 -2.058465664e-17 1.242196432e-07)
(0.000240598978 -2.508543547e-17 9.565480183e-08)
(0.0002406021625 -2.942345058e-17 6.504259557e-08)
(0.0002406056006 -3.33830804e-17 3.35220252e-08)
(0.0002406092712 -3.673080043e-17 2.291755599e-09)
(0.0002406131455 -3.921546603e-17 -2.741199594e-08)
(0.0002406171964 -4.058408621e-17 -5.446065312e-08)
(0.0002406213955 -4.058930922e-17 -7.7865776e-08)
(0.0002406257221 -3.90060537e-17 -9.690623631e-08)
(0.0002406301587 -3.564796954e-17 -1.111438973e-07)
(0.0002406346987 -3.038265701e-17 -1.20491529e-07)
(0.000240639339 -2.315786493e-17 -1.251886901e-07)
(0.0002406440867 -1.401268168e-17 -1.257900688e-07)
(0.0002406489489 -3.112114672e-18 -1.230995541e-07)
(0.0002406539396 9.249607423e-18 -1.18095574e-07)
(0.000240659069 2.261139815e-17 -1.118512963e-07)
(0.000240664351 3.635566062e-17 -1.054482669e-07)
(0.0002406697928 4.967916186e-17 -9.99300543e-08)
(0.0002406754044 6.162471772e-17 -9.62673831e-08)
(0.0002406811881 7.107750815e-17 -9.53873667e-08)
(0.0002406871488 7.682343954e-17 -9.823575447e-08)
(0.0002406932839 7.75842568e-17 -1.058989558e-07)
(0.0002406995934 7.208932773e-17 -1.197846744e-07)
(0.0002407060691 5.913092181e-17 -1.418406672e-07)
(0.0002407127051 3.757557229e-17 -1.748860338e-07)
(0.000240719484 6.324879372e-18 -2.229684672e-07)
(0.0002407263856 -3.596077822e-17 -2.919640427e-07)
(0.0002407333669 -9.134397308e-17 -3.902224782e-07)
)
;

boundaryField
{
    left
    {
        type            calculated;
        value           uniform (-0.0002405707037 -4.517056407e-14 2.859679697e-08);
    }
    right
    {
        type            calculated;
        value           uniform (0.0002407403593 -4.533083397e-14 -5.297335098e-07);
    }
    beam
    {
        type            empty;
        value           nonuniform List<vector> 0();
    }
}


// ************************************************************************* //
