/*--------------------------------*- C++ -*----------------------------------*\
| =========                 |                                                 |
| \\      /  F ield         | OpenFOAM: The Open Source CFD Toolbox           |
|  \\    /   O peration     | Version:  2312                                  |
|   \\  /    A nd           | Website:  www.openfoam.com                      |
|    \\/     M anipulation  |                                                 |
\*---------------------------------------------------------------------------*/
FoamFile
{
    version     2.0;
    format      ascii;
    arch        "LSB;label=32;scalar=64";
    class       surfaceVectorField;
    location    "0.1/beam";
    object      K;
}
// * * * * * * * * * * * * * * * * * * * * * * * * * * * * * * * * * * * * * //

dimensions      [0 -1 0 0 0 0 0];

oriented        oriented;

internalField   nonuniform List<vector> 
59
(
(-6.936404253e-20 -0.000313854366 1.816627552e-14)
(-1.388094507e-19 -0.0006166043812 3.569673266e-14)
(-2.082635455e-19 -0.0008971224262 5.194447874e-14)
(-2.776586698e-19 -0.001144234417 6.624250432e-14)
(-3.467485873e-19 -0.001346697376 7.789695547e-14)
(-4.154098718e-19 -0.001493178898 8.618385713e-14)
(-4.833865933e-19 -0.001572241742 9.035058766e-14)
(-5.503284512e-19 -0.001572339317 8.962254411e-14)
(-6.168872353e-19 -0.001481828486 8.3218233e-14)
(-6.823256194e-19 -0.001289008838 7.036954257e-14)
(-7.469372427e-19 -0.0009822009335 5.03500469e-14)
(-8.112112598e-19 -0.0005498758297 2.25149324e-14)
(-8.745683844e-19 1.914983811e-05 -1.365284365e-14)
(-9.348473197e-19 0.0007354404279 -5.84897158e-14)
(-9.872372555e-19 0.001608578215 -1.120915515e-13)
(-1.022679837e-18 0.002646703588 -1.742486141e-13)
(-1.027549042e-18 0.00385595858 -2.443794481e-13)
(-9.785238471e-19 0.005239841759 -3.214637838e-13)
(-8.417282587e-19 0.006798494339 -4.039791922e-13)
(-5.751305325e-19 0.008527949812 -4.898505266e-13)
(-1.217991512e-19 0.01041939268 -5.764125375e-13)
(5.895073766e-19 0.01245842309 -6.603884896e-13)
(1.642271972e-18 0.01462469843 -7.379062132e-13)
(3.135640911e-18 0.01689150768 -8.04530926e-13)
(5.176324726e-18 0.01922560537 -8.553387925e-13)
(7.880669187e-18 0.02158772581 -8.850389452e-13)
(1.135969462e-17 0.02393329693 -8.881344215e-13)
(1.571823079e-17 0.02621363387 -8.591256123e-13)
(2.103155372e-17 0.02837762692 -7.92762157e-13)
(2.774477038e-17 0.03037379641 -6.842930135e-13)
(3.545629266e-17 0.03215271493 -5.298222542e-13)
(4.361930599e-17 0.03366957126 -3.267190491e-13)
(5.245026904e-17 0.03488678569 -7.390234584e-14)
(6.163662524e-17 0.03577639053 2.278477241e-13)
(7.072066381e-17 0.03632202085 5.75536021e-13)
(7.913956929e-17 0.03652025413 9.636810283e-13)
(8.621331733e-17 0.0363811485 1.38411802e-12)
(9.121721879e-17 0.03592785481 1.825891343e-12)
(9.341698658e-17 0.0351952451 2.275275221e-12)
(9.2162664e-17 0.03422765643 2.715928412e-12)
(8.696590324e-17 0.03307584453 3.129231537e-12)
(7.757450974e-17 0.03179347348 3.494800448e-12)
(6.40505566e-17 0.03043336418 3.791228278e-12)
(4.67764305e-17 0.02904393942 3.997034905e-12)
(2.649513194e-17 0.02766610017 4.091869442e-12)
(4.21380112e-18 0.02633087879 4.057922794e-12)
(-1.879464346e-17 0.02505794907 3.881566694e-12)
(-4.115878063e-17 0.02385505507 3.55514393e-12)
(-6.142295687e-17 0.02271817617 3.07886262e-12)
(-7.821828433e-17 0.02163214093 2.462676197e-12)
(-9.02811474e-17 0.02057127324 1.728008855e-12)
(-9.661099262e-17 0.01949953135 9.091777179e-13)
(-9.654424397e-17 0.01836962761 5.429830057e-14)
(-8.9932111e-17 0.01712047214 -7.744029659e-13)
(-7.729880164e-17 0.01567240641 -1.500978811e-12)
(-5.999469836e-17 0.01391939169 -2.036522229e-12)
(-4.032021362e-17 0.01171738721 -2.279773671e-12)
(-2.135129881e-17 0.008867431145 -2.115985126e-12)
(-6.661617713e-18 0.005091831574 -1.41159094e-12)
)
;

boundaryField
{
    left
    {
        type            calculated;
        value           uniform (4.458505167e-30 -1.425385133e-28 -3.871117209e-33);
    }
    right
    {
        type            calculated;
        value           uniform (4.306212223e-31 4.06432849e-29 -1.340953253e-31);
    }
    beam
    {
        type            empty;
        value           nonuniform List<vector> 0();
    }
}


// ************************************************************************* //
