/*--------------------------------*- C++ -*----------------------------------*\
| =========                 |                                                 |
| \\      /  F ield         | OpenFOAM: The Open Source CFD Toolbox           |
|  \\    /   O peration     | Version:  2312                                  |
|   \\  /    A nd           | Website:  www.openfoam.com                      |
|    \\/     M anipulation  |                                                 |
\*---------------------------------------------------------------------------*/
FoamFile
{
    version     2.0;
    format      ascii;
    arch        "LSB;label=32;scalar=64";
    class       surfaceVectorField;
    location    "0.1/beam";
    object      M;
}
// * * * * * * * * * * * * * * * * * * * * * * * * * * * * * * * * * * * * * //

dimensions      [1 2 -2 0 0 0 0];

oriented        oriented;

internalField   nonuniform List<vector> 
59
(
(-2.626895859e-21 -1.893125596e-07 1.09554522e-17)
(-5.165623861e-21 -3.719271303e-07 2.152746515e-17)
(-7.525424019e-21 -5.411316878e-07 3.132591994e-17)
(-9.609797302e-21 -6.901861809e-07 3.994856381e-17)
(-1.13123903e-20 -8.123090032e-07 4.697695227e-17)
(-1.251225156e-20 -9.006646067e-07 5.197447279e-17)
(-1.306956106e-20 -9.483542076e-07 5.448723442e-17)
(-1.282339896e-20 -9.484130636e-07 5.40480881e-17)
(-1.159474672e-20 -8.938181971e-07 5.018572925e-17)
(-9.194862609e-21 -7.775120849e-07 4.243692532e-17)
(-5.44108869e-21 -5.924498523e-07 3.036358798e-17)
(-1.811355142e-22 -3.316774022e-07 1.357685523e-17)
(6.680713768e-21 1.155091425e-08 -8.235067738e-18)
(1.516316353e-20 4.4360737e-07 -3.527503978e-17)
(2.52048437e-20 9.702718589e-07 -6.760081993e-17)
(3.669626448e-20 1.596454551e-06 -1.050858411e-16)
(4.957010842e-20 2.325860232e-06 -1.473793346e-16)
(6.397329858e-20 3.160599191e-06 -1.938658635e-16)
(8.054924191e-20 4.100756606e-06 -2.436271187e-16)
(1.008599481e-19 5.143939935e-06 -2.954114283e-16)
(1.279670352e-19 6.284831792e-06 -3.47611214e-16)
(1.671850764e-19 7.514746392e-06 -3.982500997e-16)
(2.270161844e-19 8.821413347e-06 -4.449926002e-16)
(3.202470548e-19 1.018872095e-05 -4.851639279e-16)
(4.651560689e-19 1.1596616e-05 -5.157943745e-16)
(6.868000429e-19 1.302141398e-05 -5.336929235e-16)
(1.018223944e-18 1.443622964e-05 -5.355443418e-16)
(1.501495701e-18 1.581169696e-05 -5.18031915e-16)
(2.188296741e-18 1.711698727e-05 -4.77989409e-16)
(3.140056252e-18 1.832104876e-05 -4.125519311e-16)
(4.426778365e-18 1.93940675e-05 -3.193705616e-16)
(6.124293911e-18 2.030901401e-05 -1.968596561e-16)
(8.310383283e-18 2.104322071e-05 -4.436855497e-17)
(1.105887276e-17 2.15798179e-05 1.376306189e-16)
(1.443103939e-17 2.190893447e-05 3.473296216e-16)
(1.846504635e-17 2.202850601e-05 5.814205426e-16)
(2.316347738e-17 2.194459944e-05 8.349772829e-16)
(2.847978461e-17 2.167117903e-05 1.101390854e-15)
(3.430486637e-17 2.122927911e-05 1.372382254e-15)
(4.045533063e-17 2.064564317e-05 1.638096105e-15)
(4.666565691e-17 1.995088636e-05 1.887304465e-15)
(5.258608062e-17 1.917737809e-05 2.107716744e-15)
(5.778876908e-17 1.83569792e-05 2.286427409e-15)
(6.17833698e-17 1.751889764e-05 2.410488608e-15)
(6.404377986e-17 1.66878043e-05 2.467635132e-15)
(6.404547146e-17 1.588241745e-05 2.447135818e-15)
(6.131359358e-17 1.511460407e-05 2.340781236e-15)
(5.547921028e-17 1.438903525e-05 2.143962317e-15)
(4.634191751e-17 1.370328581e-05 1.856811503e-15)
(3.393477579e-17 1.304820456e-05 1.485335128e-15)
(1.858771404e-17 1.240830402e-05 1.042452529e-15)
(9.846271323e-19 1.176184432e-05 5.488522658e-16)
(-1.77917707e-17 1.10803022e-05 3.353687673e-17)
(-3.623109206e-17 1.032682911e-05 -4.659897214e-16)
(-5.23873249e-17 9.453376134e-06 -9.039581755e-16)
(-6.388645266e-17 8.395982195e-06 -1.226793048e-15)
(-6.79391004e-17 7.067763921e-06 -1.373479101e-15)
(-6.131840729e-17 5.348710322e-06 -1.274876686e-15)
(-4.023782234e-17 3.07132152e-06 -8.505094477e-16)
)
;

boundaryField
{
    left
    {
        type            calculated;
        value           uniform (5.378607389e-33 -8.59772357e-32 -1.130683941e-37);
    }
    right
    {
        type            calculated;
        value           uniform (5.155622176e-34 2.451546045e-32 -1.029864885e-34);
    }
    beam
    {
        type            empty;
        value           nonuniform List<vector> 0();
    }
}


// ************************************************************************* //
