/*--------------------------------*- C++ -*----------------------------------*\
| =========                 |                                                 |
| \\      /  F ield         | OpenFOAM: The Open Source CFD Toolbox           |
|  \\    /   O peration     | Version:  2312                                  |
|   \\  /    A nd           | Website:  www.openfoam.com                      |
|    \\/     M anipulation  |                                                 |
\*---------------------------------------------------------------------------*/
FoamFile
{
    version     2.0;
    format      ascii;
    arch        "LSB;label=32;scalar=64";
    class       pointVectorField;
    location    "0.1/beam";
    object      pointW;
}
// * * * * * * * * * * * * * * * * * * * * * * * * * * * * * * * * * * * * * //

dimensions      [0 1 0 0 0 0 0];

internalField   nonuniform List<vector> 
1952
(
(1.652464969e-06 4.628795101e-17 3.37663791e-10)
(1.620712855e-06 4.542807103e-17 3.311755722e-10)
(1.526679336e-06 4.27175656e-17 3.119608053e-10)
(1.373975048e-06 3.859759734e-17 2.807572863e-10)
(1.168470373e-06 3.252606517e-17 2.387645663e-10)
(9.18059963e-07 2.558717127e-17 1.875958338e-10)
(6.323694256e-07 1.778091563e-17 1.292179809e-10)
(3.22379804e-07 8.67361738e-18 6.587486795e-11)
(4.19106002e-17 0 -4.627064103e-17)
(-3.223798039e-07 -8.67361738e-18 -6.58749587e-11)
(-6.323694255e-07 -1.778091563e-17 -1.292180664e-10)
(-9.180599629e-07 -2.558717127e-17 -1.875959106e-10)
(-1.168470373e-06 -3.252606517e-17 -2.387646318e-10)
(-1.373975048e-06 -3.859759734e-17 -2.80757338e-10)
(-1.526679336e-06 -4.27175656e-17 -3.119608408e-10)
(-1.620712855e-06 -4.542807103e-17 -3.311755904e-10)
(-1.652464969e-06 -4.628795101e-17 -3.37663791e-10)
(-1.620712855e-06 -4.542807103e-17 -3.311755722e-10)
(-1.526679336e-06 -4.27175656e-17 -3.119608053e-10)
(-1.373975048e-06 -3.859759734e-17 -2.807572863e-10)
(-1.168470373e-06 -3.252606517e-17 -2.387645663e-10)
(-9.18059963e-07 -2.558717127e-17 -1.875958338e-10)
(-6.323694256e-07 -1.778091563e-17 -1.292179809e-10)
(-3.22379804e-07 -8.67361738e-18 -6.587486795e-11)
(-4.191075695e-17 0 4.6270641e-17)
(3.223798039e-07 8.67361738e-18 6.58749587e-11)
(6.323694255e-07 1.778091563e-17 1.292180664e-10)
(9.180599629e-07 2.558717127e-17 1.875959106e-10)
(1.168470373e-06 3.252606517e-17 2.387646318e-10)
(1.373975048e-06 3.859759734e-17 2.80757338e-10)
(1.526679336e-06 4.27175656e-17 3.119608408e-10)
(1.620712855e-06 4.542807103e-17 3.311755904e-10)
(1.232764298e-05 1.518917428e-15 1.844806345e-05)
(1.229535685e-05 1.517991462e-15 1.844805673e-05)
(1.219974184e-05 1.515280956e-15 1.844803685e-05)
(1.204446931e-05 1.511377828e-15 1.844800456e-05)
(1.183550838e-05 1.505306296e-15 1.84479611e-05)
(1.158088647e-05 1.498367402e-15 1.844790815e-05)
(1.129039108e-05 1.490561147e-15 1.844784774e-05)
(1.097518793e-05 1.481453848e-15 1.844778218e-05)
(1.064738622e-05 1.472780231e-15 1.844771401e-05)
(1.03195845e-05 1.464106614e-15 1.844764584e-05)
(1.000438136e-05 1.454999315e-15 1.844758029e-05)
(9.713885964e-06 1.44719306e-15 1.844751988e-05)
(9.459264054e-06 1.440254166e-15 1.844746692e-05)
(9.250303122e-06 1.434182634e-15 1.844742347e-05)
(9.095030594e-06 1.429845825e-15 1.844739118e-05)
(8.999415583e-06 1.42713532e-15 1.844737129e-05)
(8.967129449e-06 1.426340789e-15 1.844736458e-05)
(8.999415583e-06 1.42713532e-15 1.844737129e-05)
(9.095030594e-06 1.429845825e-15 1.844739118e-05)
(9.250303122e-06 1.434182634e-15 1.844742347e-05)
(9.459264054e-06 1.440254166e-15 1.844746693e-05)
(9.713885964e-06 1.44719306e-15 1.844751988e-05)
(1.000438136e-05 1.454999315e-15 1.844758029e-05)
(1.03195845e-05 1.464106614e-15 1.844764584e-05)
(1.064738622e-05 1.472780231e-15 1.844771401e-05)
(1.097518793e-05 1.481453848e-15 1.844778218e-05)
(1.129039108e-05 1.490561147e-15 1.844784774e-05)
(1.158088647e-05 1.498367402e-15 1.844790815e-05)
(1.183550838e-05 1.505306296e-15 1.84479611e-05)
(1.204446931e-05 1.511377828e-15 1.844800456e-05)
(1.219974184e-05 1.515280956e-15 1.844803685e-05)
(1.229535685e-05 1.517991462e-15 1.844805673e-05)
(2.305716515e-05 2.02685695e-15 3.750580381e-05)
(2.302329585e-05 2.02594018e-15 3.750579641e-05)
(2.292299231e-05 2.023338094e-15 3.750577449e-05)
(2.276010592e-05 2.019218126e-15 3.75057389e-05)
(2.254089849e-05 2.013146594e-15 3.7505691e-05)
(2.227379108e-05 2.0062077e-15 3.750563264e-05)
(2.19690511e-05 1.998401444e-15 3.750556605e-05)
(2.163839182e-05 1.988860465e-15 3.75054938e-05)
(2.129451619e-05 1.980186848e-15 3.750541866e-05)
(2.095064057e-05 1.97151323e-15 3.750534352e-05)
(2.061998128e-05 1.962839613e-15 3.750527126e-05)
(2.031524131e-05 1.955033357e-15 3.750520467e-05)
(2.004813389e-05 1.948094464e-15 3.750514631e-05)
(1.982892646e-05 1.942022931e-15 3.750509841e-05)
(1.966604007e-05 1.937902963e-15 3.750506282e-05)
(1.956573653e-05 1.935084037e-15 3.75050409e-05)
(1.953186723e-05 1.934278313e-15 3.75050335e-05)
(1.956573653e-05 1.935084037e-15 3.75050409e-05)
(1.966604007e-05 1.937902963e-15 3.750506282e-05)
(1.982892646e-05 1.942022931e-15 3.750509841e-05)
(2.004813389e-05 1.948094464e-15 3.750514631e-05)
(2.031524131e-05 1.955033357e-15 3.750520468e-05)
(2.061998128e-05 1.962839613e-15 3.750527126e-05)
(2.095064057e-05 1.97151323e-15 3.750534352e-05)
(2.129451619e-05 1.980186848e-15 3.750541866e-05)
(2.163839182e-05 1.988860465e-15 3.75054938e-05)
(2.19690511e-05 1.998401444e-15 3.750556605e-05)
(2.227379108e-05 2.0062077e-15 3.750563264e-05)
(2.254089849e-05 2.013146594e-15 3.7505691e-05)
(2.276010592e-05 2.019218126e-15 3.75057389e-05)
(2.292299231e-05 2.023338094e-15 3.750577449e-05)
(2.302329585e-05 2.02594018e-15 3.750579641e-05)
(3.383780569e-05 2.604156369e-15 5.776176619e-05)
(3.38013608e-05 2.603277836e-15 5.776175761e-05)
(3.369342969e-05 2.600567331e-15 5.776173219e-05)
(3.351815663e-05 2.596447363e-15 5.776169092e-05)
(3.32822796e-05 2.590375831e-15 5.776163537e-05)
(3.299486003e-05 2.583436937e-15 5.776156768e-05)
(3.266694615e-05 2.575630681e-15 5.776149045e-05)
(3.231114193e-05 2.566523383e-15 5.776140666e-05)
(3.194111633e-05 2.557849765e-15 5.776131952e-05)
(3.157109072e-05 2.549176148e-15 5.776123237e-05)
(3.12152865e-05 2.54006885e-15 5.776114858e-05)
(3.088737262e-05 2.532262594e-15 5.776107135e-05)
(3.059995305e-05 2.5253237e-15 5.776100367e-05)
(3.036407602e-05 2.519252168e-15 5.776094812e-05)
(3.018880296e-05 2.5151322e-15 5.776090684e-05)
(3.008087185e-05 2.512421694e-15 5.776088142e-05)
(3.004442696e-05 2.511574323e-15 5.776087284e-05)
(3.008087185e-05 2.512421694e-15 5.776088142e-05)
(3.018880296e-05 2.5151322e-15 5.776090684e-05)
(3.036407602e-05 2.519252168e-15 5.776094812e-05)
(3.059995305e-05 2.5253237e-15 5.776100367e-05)
(3.088737262e-05 2.532262594e-15 5.776107135e-05)
(3.12152865e-05 2.54006885e-15 5.776114858e-05)
(3.157109072e-05 2.549176148e-15 5.776123237e-05)
(3.194111633e-05 2.557849765e-15 5.776131952e-05)
(3.231114193e-05 2.566523383e-15 5.776140666e-05)
(3.266694615e-05 2.575630681e-15 5.776149045e-05)
(3.299486003e-05 2.583436937e-15 5.776156768e-05)
(3.32822796e-05 2.590375831e-15 5.776163537e-05)
(3.351815663e-05 2.596447363e-15 5.776169092e-05)
(3.369342969e-05 2.600567331e-15 5.776173219e-05)
(3.38013608e-05 2.603277836e-15 5.776175761e-05)
(4.466433856e-05 3.282339566e-15 7.976054414e-05)
(4.462442033e-05 3.281446295e-15 7.976053383e-05)
(4.450620296e-05 3.27884421e-15 7.976050328e-05)
(4.431422569e-05 3.274724242e-15 7.976045369e-05)
(4.405586865e-05 3.26865271e-15 7.976038694e-05)
(4.374105687e-05 3.261713816e-15 7.976030561e-05)
(4.33818915e-05 3.25390756e-15 7.976021282e-05)
(4.299217773e-05 3.244800262e-15 7.976011214e-05)
(4.258688724e-05 3.236126644e-15 7.976000744e-05)
(4.218159674e-05 3.227453027e-15 7.975990273e-05)
(4.179188297e-05 3.218345729e-15 7.975980205e-05)
(4.14327176e-05 3.210539473e-15 7.975970926e-05)
(4.111790582e-05 3.203600579e-15 7.975962793e-05)
(4.085954878e-05 3.197529047e-15 7.975956118e-05)
(4.066757151e-05 3.193409079e-15 7.975951159e-05)
(4.054935414e-05 3.190590153e-15 7.975948105e-05)
(4.050943591e-05 3.189752101e-15 7.975947073e-05)
(4.054935414e-05 3.190590153e-15 7.975948105e-05)
(4.066757151e-05 3.193409079e-15 7.975951159e-05)
(4.085954878e-05 3.197529047e-15 7.975956118e-05)
(4.111790582e-05 3.203600579e-15 7.975962793e-05)
(4.14327176e-05 3.210539473e-15 7.975970926e-05)
(4.179188297e-05 3.218345729e-15 7.975980205e-05)
(4.218159674e-05 3.227453027e-15 7.975990273e-05)
(4.258688724e-05 3.236126644e-15 7.976000744e-05)
(4.299217773e-05 3.244800262e-15 7.976011214e-05)
(4.33818915e-05 3.25390756e-15 7.976021282e-05)
(4.374105687e-05 3.261713816e-15 7.976030561e-05)
(4.405586865e-05 3.26865271e-15 7.976038694e-05)
(4.431422569e-05 3.274724242e-15 7.976045369e-05)
(4.450620296e-05 3.27884421e-15 7.976050328e-05)
(4.462442033e-05 3.281446295e-15 7.976053383e-05)
(5.552952551e-05 4.089097542e-15 0.0001039811989)
(5.548536899e-05 4.088201132e-15 0.0001039811862)
(5.535459997e-05 4.085490626e-15 0.0001039811488)
(5.514223963e-05 4.081370658e-15 0.0001039810881)
(5.485645169e-05 4.075299126e-15 0.0001039810063)
(5.450821497e-05 4.068360232e-15 0.0001039809067)
(5.411091545e-05 4.060553976e-15 0.000103980793)
(5.367982407e-05 4.051446678e-15 0.0001039806696)
(5.32315021e-05 4.042773061e-15 0.0001039805413)
(5.278318014e-05 4.034099443e-15 0.0001039804131)
(5.235208876e-05 4.024992145e-15 0.0001039802897)
(5.195478924e-05 4.017185889e-15 0.000103980176)
(5.160655252e-05 4.010246996e-15 0.0001039800764)
(5.132076458e-05 4.004175463e-15 0.0001039799946)
(5.110840424e-05 4.000055495e-15 0.0001039799338)
(5.097763522e-05 3.99734499e-15 0.0001039798964)
(5.09334787e-05 3.996502266e-15 0.0001039798838)
(5.097763522e-05 3.99734499e-15 0.0001039798964)
(5.110840424e-05 4.000055495e-15 0.0001039799338)
(5.132076458e-05 4.004175463e-15 0.0001039799946)
(5.160655252e-05 4.010246996e-15 0.0001039800764)
(5.195478924e-05 4.017185889e-15 0.000103980176)
(5.235208876e-05 4.024992145e-15 0.0001039802897)
(5.278318014e-05 4.034099443e-15 0.0001039804131)
(5.32315021e-05 4.042773061e-15 0.0001039805413)
(5.367982407e-05 4.051446678e-15 0.0001039806696)
(5.411091545e-05 4.060553976e-15 0.000103980793)
(5.450821497e-05 4.068360232e-15 0.0001039809067)
(5.485645169e-05 4.075299126e-15 0.0001039810063)
(5.514223962e-05 4.081370658e-15 0.0001039810881)
(5.535459997e-05 4.085490626e-15 0.0001039811488)
(5.548536899e-05 4.088201132e-15 0.0001039811862)
(6.642411058e-05 5.046928046e-15 0.0001308152021)
(6.637512204e-05 5.046093751e-15 0.0001308151865)
(6.623004305e-05 5.043274826e-15 0.0001308151404)
(6.599444426e-05 5.039371698e-15 0.0001308150656)
(6.567738274e-05 5.033300166e-15 0.0001308149648)
(6.529103871e-05 5.026361272e-15 0.000130814842)
(6.485026296e-05 5.018555016e-15 0.000130814702)
(6.437199754e-05 5.009014037e-15 0.00013081455)
(6.387461601e-05 5.00034042e-15 0.000130814392)
(6.337723447e-05 4.991666802e-15 0.0001308142339)
(6.289896905e-05 4.982993185e-15 0.0001308140819)
(6.245819331e-05 4.975186929e-15 0.0001308139419)
(6.207184927e-05 4.968248035e-15 0.0001308138191)
(6.175478775e-05 4.962176503e-15 0.0001308137184)
(6.151918896e-05 4.957839694e-15 0.0001308136435)
(6.137410997e-05 4.955237609e-15 0.0001308135974)
(6.132512143e-05 4.95432206e-15 0.0001308135818)
(6.137410997e-05 4.955237609e-15 0.0001308135974)
(6.151918896e-05 4.957839694e-15 0.0001308136435)
(6.175478775e-05 4.962176503e-15 0.0001308137184)
(6.207184927e-05 4.968248035e-15 0.0001308138191)
(6.245819331e-05 4.975186929e-15 0.0001308139419)
(6.289896905e-05 4.982993185e-15 0.0001308140819)
(6.337723447e-05 4.991666802e-15 0.0001308142339)
(6.387461601e-05 5.00034042e-15 0.000130814392)
(6.437199754e-05 5.009014037e-15 0.00013081455)
(6.485026296e-05 5.018555016e-15 0.000130814702)
(6.529103871e-05 5.026361272e-15 0.000130814842)
(6.567738274e-05 5.033300166e-15 0.0001308149648)
(6.599444426e-05 5.039371698e-15 0.0001308150656)
(6.623004305e-05 5.043274826e-15 0.0001308151404)
(6.637512204e-05 5.046093751e-15 0.0001308151865)
(7.733682686e-05 6.171717381e-15 0.0001605442024)
(7.728262255e-05 6.170736665e-15 0.0001605441833)
(7.712209712e-05 6.168243e-15 0.0001605441269)
(7.68614143e-05 6.163906191e-15 0.0001605440351)
(7.651059549e-05 6.15826834e-15 0.0001605439117)
(7.608311771e-05 6.150895765e-15 0.0001605437613)
(7.559541292e-05 6.143089509e-15 0.0001605435897)
(7.506622695e-05 6.133982211e-15 0.0001605434035)
(7.451588959e-05 6.125308594e-15 0.0001605432099)
(7.396555223e-05 6.116634976e-15 0.0001605430162)
(7.343636626e-05 6.107527678e-15 0.00016054283)
(7.294866147e-05 6.099721422e-15 0.0001605426584)
(7.252118368e-05 6.092348848e-15 0.000160542508)
(7.217036487e-05 6.086710996e-15 0.0001605423846)
(7.190968206e-05 6.082807869e-15 0.0001605422929)
(7.174915662e-05 6.079880523e-15 0.0001605422364)
(7.169495231e-05 6.079097874e-15 0.0001605422173)
(7.174915662e-05 6.079880523e-15 0.0001605422364)
(7.190968206e-05 6.082807869e-15 0.0001605422929)
(7.217036487e-05 6.086710996e-15 0.0001605423846)
(7.252118368e-05 6.092348848e-15 0.000160542508)
(7.294866147e-05 6.099721422e-15 0.0001605426584)
(7.343636626e-05 6.107527678e-15 0.00016054283)
(7.396555223e-05 6.116634976e-15 0.0001605430162)
(7.451588959e-05 6.125308594e-15 0.0001605432099)
(7.506622695e-05 6.133982211e-15 0.0001605434035)
(7.559541292e-05 6.143089509e-15 0.0001605435897)
(7.608311771e-05 6.150895765e-15 0.0001605437613)
(7.651059549e-05 6.15826834e-15 0.0001605439117)
(7.68614143e-05 6.163906191e-15 0.0001605440351)
(7.712209712e-05 6.168243e-15 0.0001605441269)
(7.728262255e-05 6.170736665e-15 0.0001605441833)
(8.825441707e-05 7.471258808e-15 0.0001933176015)
(8.81948623e-05 7.470369809e-15 0.0001933175785)
(8.801849151e-05 7.467767724e-15 0.0001933175103)
(8.773207689e-05 7.463647755e-15 0.0001933173995)
(8.734662901e-05 7.458009904e-15 0.0001933172504)
(8.687695521e-05 7.450637329e-15 0.0001933170688)
(8.634110944e-05 7.442831074e-15 0.0001933168615)
(8.575968791e-05 7.433290095e-15 0.0001933166366)
(8.515502715e-05 7.424616477e-15 0.0001933164028)
(8.45503664e-05 7.41594286e-15 0.0001933161689)
(8.396894487e-05 7.407269242e-15 0.000193315944)
(8.34330991e-05 7.399462987e-15 0.0001933157367)
(8.29634253e-05 7.392090412e-15 0.0001933155551)
(8.257797742e-05 7.386452561e-15 0.000193315406)
(8.229156279e-05 7.382332592e-15 0.0001933152952)
(8.211519201e-05 7.379513667e-15 0.000193315227)
(8.205563723e-05 7.37862316e-15 0.000193315204)
(8.211519201e-05 7.379513667e-15 0.000193315227)
(8.229156279e-05 7.382332592e-15 0.0001933152952)
(8.257797742e-05 7.386452561e-15 0.000193315406)
(8.29634253e-05 7.392090412e-15 0.0001933155551)
(8.34330991e-05 7.399462987e-15 0.0001933157367)
(8.396894487e-05 7.407269242e-15 0.000193315944)
(8.45503664e-05 7.41594286e-15 0.0001933161689)
(8.515502715e-05 7.424616477e-15 0.0001933164028)
(8.575968791e-05 7.433290095e-15 0.0001933166366)
(8.634110944e-05 7.442831074e-15 0.0001933168615)
(8.687695521e-05 7.450637329e-15 0.0001933170688)
(8.734662901e-05 7.458009904e-15 0.0001933172504)
(8.773207689e-05 7.463647755e-15 0.0001933173995)
(8.801849151e-05 7.467767724e-15 0.0001933175103)
(8.81948623e-05 7.470369809e-15 0.0001933175785)
(9.916166491e-05 8.943759212e-15 0.0002291299213)
(9.90969135e-05 8.9429332e-15 0.000229129894)
(9.890515295e-05 8.940114274e-15 0.0002291298134)
(9.859374635e-05 8.935994306e-15 0.0002291296823)
(9.817466504e-05 8.930356454e-15 0.000229129506)
(9.766400843e-05 8.92298388e-15 0.0002291292912)
(9.70814058e-05 8.915177624e-15 0.0002291290461)
(9.644925057e-05 8.906070326e-15 0.0002291287802)
(9.57918283e-05 8.897396708e-15 0.0002291285036)
(9.513440603e-05 8.888723091e-15 0.000229128227)
(9.45022508e-05 8.879615793e-15 0.0002291279611)
(9.391964817e-05 8.871809537e-15 0.000229127716)
(9.340899156e-05 8.864436962e-15 0.0002291275012)
(9.298991025e-05 8.858799111e-15 0.0002291273249)
(9.267850365e-05 8.854679143e-15 0.0002291271938)
(9.24867431e-05 8.852077057e-15 0.0002291271132)
(9.242199169e-05 8.851105872e-15 0.0002291270859)
(9.24867431e-05 8.852077057e-15 0.0002291271132)
(9.267850365e-05 8.854679143e-15 0.0002291271938)
(9.298991025e-05 8.858799111e-15 0.0002291273249)
(9.340899156e-05 8.864436962e-15 0.0002291275012)
(9.391964817e-05 8.871809537e-15 0.000229127716)
(9.45022508e-05 8.879615793e-15 0.0002291279611)
(9.513440603e-05 8.888723091e-15 0.000229128227)
(9.57918283e-05 8.897396708e-15 0.0002291285036)
(9.644925057e-05 8.906070326e-15 0.0002291287802)
(9.70814058e-05 8.915177624e-15 0.0002291290461)
(9.766400843e-05 8.92298388e-15 0.0002291292912)
(9.817466504e-05 8.930356454e-15 0.000229129506)
(9.859374635e-05 8.935994306e-15 0.0002291296823)
(9.890515295e-05 8.940114274e-15 0.0002291298134)
(9.90969135e-05 8.9429332e-15 0.000229129894)
(0.0001100414435 1.057629639e-14 0.0002677979864)
(0.0001099719775 1.057530799e-14 0.000267797955)
(0.0001097662549 1.057270591e-14 0.0002677978621)
(0.0001094321748 1.05683691e-14 0.0002677977113)
(0.0001089825802 1.056273125e-14 0.0002677975084)
(0.0001084347427 1.055535867e-14 0.000267797261)
(0.0001078097209 1.054755241e-14 0.0002677969789)
(0.0001071315385 1.053844512e-14 0.0002677966727)
(0.0001064262493 1.05297715e-14 0.0002677963543)
(0.0001057209602 1.052109788e-14 0.0002677960359)
(0.0001050427778 1.051199058e-14 0.0002677957298)
(0.0001044177559 1.050418433e-14 0.0002677954476)
(0.0001038699185 1.049681175e-14 0.0002677952003)
(0.0001034203239 1.04911739e-14 0.0002677949973)
(0.0001030862438 1.048727077e-14 0.0002677948465)
(0.0001028805212 1.048445185e-14 0.0002677947536)
(0.0001028110552 1.048362518e-14 0.0002677947223)
(0.0001028805212 1.048445185e-14 0.0002677947536)
(0.0001030862438 1.048727077e-14 0.0002677948465)
(0.0001034203239 1.04911739e-14 0.0002677949973)
(0.0001038699185 1.049681175e-14 0.0002677952003)
(0.0001044177559 1.050418433e-14 0.0002677954476)
(0.0001050427778 1.051199058e-14 0.0002677957298)
(0.0001057209602 1.052109788e-14 0.0002677960359)
(0.0001064262493 1.05297715e-14 0.0002677963543)
(0.0001071315385 1.053844512e-14 0.0002677966727)
(0.0001078097209 1.054755241e-14 0.0002677969789)
(0.0001084347427 1.055535867e-14 0.000267797261)
(0.0001089825802 1.056273125e-14 0.0002677975084)
(0.0001094321748 1.05683691e-14 0.0002677977113)
(0.0001097662549 1.057270591e-14 0.0002677978621)
(0.0001099719775 1.057530799e-14 0.000267797955)
(0.000120874778 1.234330646e-14 0.0003089380242)
(0.0001208014476 1.234244911e-14 0.0003089379892)
(0.0001205842805 1.233952177e-14 0.0003089378857)
(0.0001202316153 1.233561864e-14 0.0003089377176)
(0.0001197570095 1.232998079e-14 0.0003089374914)
(0.0001191786954 1.232260821e-14 0.0003089372158)
(0.0001185189032 1.231480196e-14 0.0003089369013)
(0.000117802993 1.230526098e-14 0.00030893656)
(0.0001170584682 1.229658736e-14 0.0003089362052)
(0.0001163139434 1.228791374e-14 0.0003089358503)
(0.0001155980333 1.227924012e-14 0.000308935509)
(0.000114938241 1.227143387e-14 0.0003089351945)
(0.000114359927 1.226406129e-14 0.0003089349189)
(0.0001138853211 1.225842344e-14 0.0003089346927)
(0.000113532656 1.225408663e-14 0.0003089345246)
(0.0001133154889 1.225159297e-14 0.0003089344211)
(0.0001132421585 1.225061944e-14 0.0003089343861)
(0.0001133154889 1.225159297e-14 0.0003089344211)
(0.000113532656 1.225408663e-14 0.0003089345246)
(0.0001138853211 1.225842344e-14 0.0003089346927)
(0.000114359927 1.226406129e-14 0.0003089349189)
(0.000114938241 1.227143387e-14 0.0003089351945)
(0.0001155980333 1.227924012e-14 0.000308935509)
(0.0001163139434 1.228791374e-14 0.0003089358503)
(0.0001170584682 1.229658736e-14 0.0003089362052)
(0.000117802993 1.230526098e-14 0.00030893656)
(0.0001185189032 1.231480196e-14 0.0003089369013)
(0.0001191786954 1.232260821e-14 0.0003089372158)
(0.0001197570095 1.232998079e-14 0.0003089374914)
(0.0001202316153 1.233561864e-14 0.0003089377176)
(0.0001205842805 1.233952177e-14 0.0003089378857)
(0.0001208014476 1.234244911e-14 0.0003089379892)
(0.0001316409178 1.4205216e-14 0.0003519428274)
(0.0001315649806 1.42043495e-14 0.0003519427899)
(0.0001313400935 1.420153058e-14 0.0003519426789)
(0.0001309748915 1.419741061e-14 0.0003519424986)
(0.0001304834141 1.419177276e-14 0.000351942256)
(0.0001298845417 1.418440018e-14 0.0003519419604)
(0.0001292012947 1.417659393e-14 0.0003519416231)
(0.0001284599348 1.416748663e-14 0.0003519412571)
(0.0001276889431 1.415881301e-14 0.0003519408765)
(0.0001269179514 1.415013939e-14 0.0003519404959)
(0.0001261765915 1.41410321e-14 0.0003519401299)
(0.0001254933445 1.413322584e-14 0.0003519397926)
(0.0001248944721 1.412585326e-14 0.000351939497)
(0.0001244029947 1.412021541e-14 0.0003519392543)
(0.0001240377927 1.411609545e-14 0.0003519390741)
(0.0001238129055 1.411349336e-14 0.000351938963)
(0.0001237369684 1.41125178e-14 0.0003519389255)
(0.0001238129055 1.411349336e-14 0.000351938963)
(0.0001240377927 1.411609545e-14 0.0003519390741)
(0.0001244029947 1.412021541e-14 0.0003519392543)
(0.0001248944721 1.412585326e-14 0.000351939497)
(0.0001254933445 1.413322584e-14 0.0003519397926)
(0.0001261765915 1.41410321e-14 0.0003519401299)
(0.0001269179514 1.415013939e-14 0.0003519404959)
(0.0001276889431 1.415881301e-14 0.0003519408765)
(0.0001284599348 1.416748663e-14 0.0003519412571)
(0.0001292012947 1.417659393e-14 0.0003519416231)
(0.0001298845417 1.418440018e-14 0.0003519419604)
(0.0001304834141 1.419177276e-14 0.000351942256)
(0.0001309748915 1.419741061e-14 0.0003519424986)
(0.0001313400935 1.420153058e-14 0.0003519426789)
(0.0001315649806 1.42043495e-14 0.0003519427899)
(0.0001423174217 1.610720461e-14 0.0003959592492)
(0.0001422405815 1.610636537e-14 0.0003959592108)
(0.0001420130201 1.610365487e-14 0.0003959590971)
(0.0001416434752 1.60995349e-14 0.0003959589125)
(0.0001411461532 1.609389705e-14 0.0003959586641)
(0.0001405401592 1.608652447e-14 0.0003959583613)
(0.0001398487871 1.607871822e-14 0.0003959580159)
(0.0001390986112 1.606961092e-14 0.0003959576412)
(0.0001383184511 1.60609373e-14 0.0003959572514)
(0.0001375382909 1.605226368e-14 0.0003959568617)
(0.000136788115 1.604315639e-14 0.0003959564869)
(0.000136096743 1.603535013e-14 0.0003959561415)
(0.0001354907489 1.602797756e-14 0.0003959558388)
(0.000134993427 1.60223397e-14 0.0003959555903)
(0.0001346238821 1.601821974e-14 0.0003959554057)
(0.0001343963207 1.601550923e-14 0.000395955292)
(0.0001343194804 1.601450264e-14 0.0003959552536)
(0.0001343963207 1.601550923e-14 0.000395955292)
(0.0001346238821 1.601821974e-14 0.0003959554057)
(0.000134993427 1.60223397e-14 0.0003959555903)
(0.0001354907489 1.602797756e-14 0.0003959558388)
(0.000136096743 1.603535013e-14 0.0003959561415)
(0.000136788115 1.604315639e-14 0.0003959564869)
(0.0001375382909 1.605226368e-14 0.0003959568617)
(0.0001383184511 1.60609373e-14 0.0003959572514)
(0.0001390986112 1.606961092e-14 0.0003959576412)
(0.0001398487871 1.607871822e-14 0.0003959580159)
(0.0001405401592 1.608652447e-14 0.0003959583613)
(0.0001411461532 1.609389705e-14 0.0003959586641)
(0.0001416434752 1.60995349e-14 0.0003959589125)
(0.0001420130201 1.610365487e-14 0.0003959590971)
(0.0001422405815 1.610636537e-14 0.0003959592108)
(0.0001528802412 1.797820528e-14 0.0004398664116)
(0.0001528046849 1.797726464e-14 0.0004398663745)
(0.0001525809258 1.797477098e-14 0.0004398662645)
(0.0001522175557 1.797043417e-14 0.000439866086)
(0.0001517285435 1.796479632e-14 0.0004398658458)
(0.000151132675 1.795742374e-14 0.0004398655531)
(0.0001504528552 1.794961749e-14 0.0004398652191)
(0.000149715214 1.794051019e-14 0.0004398648567)
(0.0001489480896 1.793183657e-14 0.0004398644799)
(0.0001481809652 1.792316295e-14 0.000439864103)
(0.000147443324 1.791405566e-14 0.0004398637407)
(0.0001467635042 1.79062494e-14 0.0004398634067)
(0.0001461676358 1.789887683e-14 0.000439863114)
(0.0001456786236 1.789323897e-14 0.0004398628738)
(0.0001453152535 1.788933585e-14 0.0004398626953)
(0.0001450914944 1.78864085e-14 0.0004398625853)
(0.0001450159381 1.788550923e-14 0.0004398625482)
(0.0001450914944 1.78864085e-14 0.0004398625853)
(0.0001453152535 1.788933585e-14 0.0004398626953)
(0.0001456786236 1.789323897e-14 0.0004398628738)
(0.0001461676358 1.789887683e-14 0.000439863114)
(0.0001467635042 1.79062494e-14 0.0004398634067)
(0.000147443324 1.791405566e-14 0.0004398637407)
(0.0001481809652 1.792316295e-14 0.000439864103)
(0.0001489480896 1.793183657e-14 0.0004398644799)
(0.000149715214 1.794051019e-14 0.0004398648567)
(0.0001504528552 1.794961749e-14 0.0004398652191)
(0.000151132675 1.795742374e-14 0.0004398655531)
(0.0001517285435 1.796479632e-14 0.0004398658458)
(0.0001522175557 1.797043417e-14 0.000439866086)
(0.0001525809258 1.797477098e-14 0.0004398662645)
(0.0001528046849 1.797726464e-14 0.0004398663745)
(0.0001633038075 1.97302725e-14 0.0004822551724)
(0.0001632322395 1.972933535e-14 0.0004822551391)
(0.0001630202918 1.972662485e-14 0.0004822550404)
(0.0001626761025 1.972250488e-14 0.0004822548803)
(0.0001622129033 1.971686703e-14 0.0004822546647)
(0.0001616484884 1.970949445e-14 0.0004822544021)
(0.0001610045535 1.97016882e-14 0.0004822541025)
(0.0001603058495 1.96925809e-14 0.0004822537773)
(0.0001595792185 1.968390728e-14 0.0004822534392)
(0.0001588525875 1.967523366e-14 0.0004822531011)
(0.0001581538835 1.966612637e-14 0.000482252776)
(0.0001575099487 1.965832011e-14 0.0004822524763)
(0.0001569455338 1.965094754e-14 0.0004822522137)
(0.0001564823346 1.964530968e-14 0.0004822519982)
(0.0001561381453 1.964118972e-14 0.000482251838)
(0.0001559261976 1.963847921e-14 0.0004822517394)
(0.0001558546296 1.963759326e-14 0.0004822517061)
(0.0001559261976 1.963847921e-14 0.0004822517394)
(0.0001561381453 1.964118972e-14 0.000482251838)
(0.0001564823346 1.964530968e-14 0.0004822519982)
(0.0001569455338 1.965094754e-14 0.0004822522137)
(0.0001575099487 1.965832011e-14 0.0004822524763)
(0.0001581538835 1.966612637e-14 0.000482252776)
(0.0001588525875 1.967523366e-14 0.0004822531011)
(0.0001595792185 1.968390728e-14 0.0004822534392)
(0.0001603058495 1.96925809e-14 0.0004822537773)
(0.0001610045535 1.97016882e-14 0.0004822541025)
(0.0001616484884 1.970949445e-14 0.0004822544021)
(0.0001622129033 1.971686703e-14 0.0004822546647)
(0.0001626761025 1.972250488e-14 0.0004822548803)
(0.0001630202918 1.972662485e-14 0.0004822550404)
(0.0001632322395 1.972933535e-14 0.0004822551391)
(0.0001735611006 2.125843046e-14 0.0005214095706)
(0.000173496773 2.125751832e-14 0.0005214095437)
(0.0001733062673 2.125491623e-14 0.000521409464)
(0.0001729968986 2.125036258e-14 0.0005214093347)
(0.0001725805598 2.124472473e-14 0.0005214091605)
(0.000172073245 2.123735215e-14 0.0005214089484)
(0.0001714944551 2.12295459e-14 0.0005214087063)
(0.0001708664368 2.122087228e-14 0.0005214084436)
(0.0001702133168 2.121219866e-14 0.0005214081705)
(0.0001695601968 2.120352505e-14 0.0005214078973)
(0.0001689321785 2.119398407e-14 0.0005214076347)
(0.0001683533885 2.118617781e-14 0.0005214073926)
(0.0001678460737 2.117880524e-14 0.0005214071804)
(0.0001674297349 2.117316739e-14 0.0005214070063)
(0.0001671203662 2.11694811e-14 0.0005214068769)
(0.0001669298606 2.116666217e-14 0.0005214067972)
(0.0001668655329 2.116577754e-14 0.0005214067703)
(0.0001669298606 2.116666217e-14 0.0005214067972)
(0.0001671203662 2.11694811e-14 0.0005214068769)
(0.0001674297349 2.117316739e-14 0.0005214070063)
(0.0001678460737 2.117880524e-14 0.0005214071804)
(0.0001683533885 2.118617781e-14 0.0005214073926)
(0.0001689321785 2.119398407e-14 0.0005214076347)
(0.0001695601968 2.120352505e-14 0.0005214078973)
(0.0001702133168 2.121219866e-14 0.0005214081705)
(0.0001708664368 2.122087228e-14 0.0005214084436)
(0.0001714944551 2.12295459e-14 0.0005214087063)
(0.000172073245 2.123735215e-14 0.0005214089484)
(0.0001725805598 2.124472473e-14 0.0005214091605)
(0.0001729968986 2.125036258e-14 0.0005214093347)
(0.0001733062673 2.125491623e-14 0.000521409464)
(0.000173496773 2.125751832e-14 0.0005214095437)
(0.000183623698 2.244110009e-14 0.0005552911454)
(0.0001835704345 2.244027447e-14 0.0005552911269)
(0.0001834126954 2.243734712e-14 0.0005552910723)
(0.0001831565373 2.243344399e-14 0.0005552909836)
(0.0001828118078 2.242780614e-14 0.0005552908643)
(0.0001823917499 2.242043357e-14 0.0005552907188)
(0.0001819125103 2.241262731e-14 0.0005552905529)
(0.0001813925096 2.240308633e-14 0.0005552903728)
(0.0001808517247 2.239441271e-14 0.0005552901856)
(0.0001803109397 2.23857391e-14 0.0005552899983)
(0.000179790939 2.237706548e-14 0.0005552898183)
(0.0001793116995 2.236925922e-14 0.0005552896524)
(0.0001788916415 2.236188665e-14 0.0005552895069)
(0.000178546912 2.23562488e-14 0.0005552893876)
(0.000178290754 2.235191199e-14 0.0005552892989)
(0.0001781330148 2.234941832e-14 0.0005552892442)
(0.0001780797514 2.234847826e-14 0.0005552892258)
(0.0001781330148 2.234941832e-14 0.0005552892442)
(0.000178290754 2.235191199e-14 0.0005552892989)
(0.000178546912 2.23562488e-14 0.0005552893876)
(0.0001788916415 2.236188665e-14 0.0005552895069)
(0.0001793116995 2.236925922e-14 0.0005552896524)
(0.000179790939 2.237706548e-14 0.0005552898183)
(0.0001803109397 2.23857391e-14 0.0005552899983)
(0.0001808517247 2.239441271e-14 0.0005552901856)
(0.0001813925096 2.240308633e-14 0.0005552903728)
(0.0001819125103 2.241262731e-14 0.0005552905529)
(0.0001823917499 2.242043357e-14 0.0005552907188)
(0.0001828118078 2.242780614e-14 0.0005552908643)
(0.0001831565373 2.243344399e-14 0.0005552909836)
(0.0001834126954 2.243734712e-14 0.0005552910723)
(0.0001835704345 2.244027447e-14 0.0005552911269)
(0.0001934617813 2.314128654e-14 0.0005815272227)
(0.0001934239943 2.314045223e-14 0.0005815272134)
(0.0001933120883 2.313774172e-14 0.0005815271859)
(0.0001931303603 2.313340491e-14 0.0005815271413)
(0.0001928857965 2.312733338e-14 0.0005815270812)
(0.0001925877919 2.312039449e-14 0.0005815270081)
(0.0001922478016 2.311258823e-14 0.0005815269246)
(0.0001918788939 2.310391461e-14 0.000581526834)
(0.0001914952411 2.3095241e-14 0.0005815267398)
(0.0001911115883 2.308656738e-14 0.0005815266456)