/*--------------------------------*- C++ -*----------------------------------*\
| =========                 |                                                 |
| \\      /  F ield         | OpenFOAM: The Open Source CFD Toolbox           |
|  \\    /   O peration     | Version:  2312                                  |
|   \\  /    A nd           | Website:  www.openfoam.com                      |
|    \\/     M anipulation  |                                                 |
\*---------------------------------------------------------------------------*/
FoamFile
{
    version     2.0;
    format      ascii;
    arch        "LSB;label=32;scalar=64";
    class       surfaceVectorField;
    location    "0.1/beam";
    object      Q;
}
// * * * * * * * * * * * * * * * * * * * * * * * * * * * * * * * * * * * * * //

dimensions      [1 1 -2 0 0 0 0];

oriented        oriented;

internalField   nonuniform List<vector> 
59
(
(0.0362771012 1.493048576e-16 1.100200636e-05)
(0.03627710914 2.055668623e-16 1.197615545e-05)
(0.03627712236 2.978656108e-16 1.357052068e-05)
(0.03627714085 4.239360247e-16 1.574121088e-05)
(0.03627716458 5.804948613e-16 1.842663325e-05)
(0.03627719355 7.63137227e-16 2.154732087e-05)
(0.03627722776 9.662167902e-16 2.500567718e-05)
(0.03627726725 1.182719322e-15 2.868562189e-05)
(0.03627731209 1.404141476e-15 3.245212994e-05)
(0.03627736239 1.620388895e-15 3.615066888e-05)
(0.03627741833 1.819709607e-15 3.960656128e-05)
(0.03627748012 1.988680314e-15 4.262432705e-05)
(0.03627754807 2.112264404e-15 4.498709708e-05)
(0.0362776225 2.173961121e-15 4.64562306e-05)
(0.03627770378 2.15606515e-15 4.677131442e-05)
(0.03627779225 2.040054502e-15 4.565076584e-05)
(0.03627788819 1.807122176e-15 4.27932994e-05)
(0.03627799172 1.43886284e-15 3.788054271e-05)
(0.0362781027 9.181200531e-16 3.058109131e-05)
(0.03627822059 2.299918074e-16 2.055626905e-05)
(0.03627834426 -6.370173774e-16 7.467801692e-06)
(0.03627847184 -1.689720913e-15 -9.012488338e-06)
(0.03627860048 -2.928736822e-15 -2.918851321e-05)
(0.03627872626 -4.347839754e-15 -5.333890743e-05)
(0.03627884383 -5.930892953e-15 -8.167391982e-05)
(0.03627894658 -7.653027721e-15 -0.0001143620382)
(0.03627902642 -9.476720409e-15 -0.0001514634935)
(0.0362790741 -1.13541083e-14 -0.000192975468)
(0.03627907942 -1.322333748e-14 -0.0002387537634)
(0.03627903174 -1.501205488e-14 -0.000288580341)
(0.03627892073 -1.663479746e-14 -0.0003420784323)
(0.03627873701 -1.79976134e-14 -0.0003988062878)
(0.03627847329 -1.899736155e-14 -0.0004581714299)
(0.03627812489 -1.952711844e-14 -0.0005195506037)
(0.03627769099 -1.947822041e-14 -0.0005822070617)
(0.03627717448 -1.874574924e-14 -0.0006454308312)
(0.03627658289 -1.723394778e-14 -0.0007084591484)
(0.03627592725 -1.486071422e-14 -0.000770624937)
(0.03627522242 -1.156664456e-14 -0.0008312763076)
(0.03627448487 -7.31718645e-15 -0.0008899172859)
(0.03627373266 -2.115003467e-15 -0.0009461200738)
(0.03627298266 4.001696306e-15 -0.0009996432455)
(0.03627225068 1.094453668e-14 -0.001050332282)
(0.03627154904 1.858194121e-14 -0.001098207591)
(0.03627088734 2.672429464e-14 -0.00114335475)
(0.03627027103 3.513755337e-14 -0.001185985552)
(0.03626970296 4.353139869e-14 -0.001226326601)
(0.03626918291 5.158058065e-14 -0.001264665991)
(0.03626870948 5.892032401e-14 -0.001301252639)
(0.03626828003 6.517583494e-14 -0.001336343705)
(0.03626789234 6.996936744e-14 -0.001370123916)
(0.03626754432 7.295646744e-14 -0.001402762658)
(0.03626723502 7.38467776e-14 -0.001434353696)
(0.036266964 7.244103203e-14 -0.001464980435)
(0.03626673177 6.866042756e-14 -0.001494668012)
(0.03626653904 6.256882025e-14 -0.001523448431)
(0.03626638687 5.439023493e-14 -0.0015513154)
(0.03626627616 4.448327127e-14 -0.001578282514)
(0.03626620772 3.33001632e-14 -0.001604336659)
)
;

boundaryField
{
    left
    {
        type            calculated;
        value           uniform (-0.03627709855 -6.811920355e-12 -1.067437693e-05);
    }
    right
    {
        type            calculated;
        value           uniform (0.03626618204 -6.789768425e-12 -0.001629488591);
    }
    beam
    {
        type            empty;
        value           nonuniform List<vector> 0();
    }
}


// ************************************************************************* //
