/*--------------------------------*- C++ -*----------------------------------*\
| =========                 |                                                 |
| \\      /  F ield         | OpenFOAM: The Open Source CFD Toolbox           |
|  \\    /   O peration     | Version:  2312                                  |
|   \\  /    A nd           | Website:  www.openfoam.com                      |
|    \\/     M anipulation  |                                                 |
\*---------------------------------------------------------------------------*/
FoamFile
{
    version     2.0;
    format      ascii;
    arch        "LSB;label=32;scalar=64";
    class       volVectorField;
    location    "0.1/beam";
    object      Theta;
}
// * * * * * * * * * * * * * * * * * * * * * * * * * * * * * * * * * * * * * //

dimensions      [0 0 0 0 0 0 0];

internalField   nonuniform List<vector> 
60
(
(5.912273399e-15 -0.0004559314536 1.094437722e-14)
(5.91214535e-15 -0.0004675365539 1.175613137e-14)
(5.911897908e-15 -0.0004939167537 1.334902037e-14)
(5.911565749e-15 -0.0005318965626 1.566331516e-14)
(5.911191343e-15 -0.0005813081452 1.86079608e-14)
(5.910824561e-15 -0.0006393900195 2.205926095e-14)
(5.910515237e-15 -0.0007041331527 2.586060401e-14)
(5.910308597e-15 -0.0007722716003 2.981820637e-14)
(5.910237613e-15 -0.0008404773139 3.370443575e-14)
(5.910320656e-15 -0.0009046379912 3.725370997e-14)
(5.91056053e-15 -0.0009602841234 4.016335335e-14)
(5.910939437e-15 -0.001002332845 4.209981971e-14)
(5.911425191e-15 -0.001025248444 4.269875256e-14)
(5.911974696e-15 -0.001022965601 4.157252933e-14)
(5.912541284e-15 -0.0009889718837 3.831895894e-14)
(5.913083863e-15 -0.0009163182595 3.253336588e-14)
(5.913578478e-15 -0.0007977026704 2.382313116e-14)
(5.914031767e-15 -0.0006255466968 1.182465907e-14)
(5.914492301e-15 -0.0003921196672 -3.770113463e-15)
(5.915067609e-15 -8.968307337e-05 -2.319691049e-14)
(5.915934066e-15 0.0002893250287 -4.65876342e-14)
(5.917347068e-15 0.0007520768435 -7.394162557e-14)
(5.919644765e-15 0.001305075454 -1.05096658e-13)
(5.923244215e-15 0.001954017163 -1.39704203e-13)
(5.928625447e-15 0.002703321834 -1.77195207e-13)
(5.93629496e-15 0.003555968689 -2.167575965e-13)
(5.946732494e-15 0.004513198422 -2.573276118e-13)
(5.960298093e-15 0.005574278322 -2.975608904e-13)
(5.977114982e-15 0.006736320134 -3.35865201e-13)
(5.996894783e-15 0.007994172739 -3.703573189e-13)
(6.019231566e-15 0.009340405748 -3.989238677e-13)
(6.041465487e-15 0.01076540037 -4.193491872e-13)
(6.061154822e-15 0.01225755381 -4.292004795e-13)
(6.073931332e-15 0.01380359943 -4.25988864e-13)
(6.073719584e-15 0.01538903229 -4.0729467e-13)
(6.0524167e-15 0.01699862294 -3.708171358e-13)
(5.999810344e-15 0.01861699036 -3.145237873e-13)
(5.903388868e-15 0.0202291989 -2.367537959e-13)
(5.748506726e-15 0.02182133782 -1.363548824e-13)
(5.518294442e-15 0.02338104051 -1.279501858e-14)
(5.193931592e-15 0.02489790312 1.337275982e-13)
(4.754307013e-15 0.02636376939 3.022056989e-13)
(4.175890409e-15 0.02777285847 4.907714574e-13)
(3.431557796e-15 0.02912172907 6.966922166e-13)
(2.489739602e-15 0.03040908228 9.164155898e-13)
(1.312682304e-15 0.03163543269 1.145674558e-12)
(-1.43530065e-16 0.03280266444 1.379653924e-12)
(-1.927635315e-15 0.03391354012 1.613214988e-12)
(-4.086249028e-15 0.03497115283 1.84116624e-12)
(-6.65104931e-15 0.03597843831 2.058556442e-12)
(-9.616072919e-15 0.03693762608 2.260951033e-12)
(-1.290810418e-14 0.03784986648 2.444636241e-12)
(-1.635388168e-14 0.03871461784 2.606677214e-12)
(-1.965969737e-14 0.03952940566 2.744740439e-12)
(-2.242474728e-14 0.04028878193 2.85658219e-12)
(-2.421591595e-14 0.04098422088 2.939117965e-12)
(-2.471915043e-14 0.04160175134 2.987002272e-12)
(-2.39280765e-14 0.04212227897 2.990764667e-12)
(-2.220440399e-14 0.04251580443 2.934658941e-12)
(-1.978411148e-14 0.04274353615 2.79466814e-12)
)
;

boundaryField
{
    left
    {
        type            momentBeamRotationNR;
        value           uniform (5.912273399e-15 -0.0004559314536 1.094437722e-14);
        momentSeries    
{
        file            "$FOAM_CASE/constant/beam/timeVsMoment";
        outOfBounds     clamp;
}
        moment          uniform (0 0 0);
    }
    right
    {
        type            momentBeamRotationNR;
        value           uniform (-1.978411148e-14 0.04274353615 2.79466814e-12);
        momentSeries    
{
        file            "$FOAM_CASE/constant/beam/timeVsMoment";
        outOfBounds     clamp;
}
        moment          uniform (0 0 0);
    }
    beam
    {
        type            empty;
    }
}


// ************************************************************************* //
