/*--------------------------------*- C++ -*----------------------------------*\
| =========                 |                                                 |
| \\      /  F ield         | OpenFOAM: The Open Source CFD Toolbox           |
|  \\    /   O peration     | Version:  2312                                  |
|   \\  /    A nd           | Website:  www.openfoam.com                      |
|    \\/     M anipulation  |                                                 |
\*---------------------------------------------------------------------------*/
FoamFile
{
    version     2.0;
    format      ascii;
    arch        "LSB;label=32;scalar=64";
    class       volVectorField;
    location    "0.1/beam";
    object      W;
}
// * * * * * * * * * * * * * * * * * * * * * * * * * * * * * * * * * * * * * //

dimensions      [0 1 0 0 0 0 0];

internalField   nonuniform List<vector> 
60
(
(5.323724416e-06 1.231861625e-15 9.146927841e-06)
(1.597104802e-05 1.713396591e-15 2.774850019e-05)
(2.661798437e-05 2.247738672e-15 4.726233713e-05)
(3.726424828e-05 2.86799202e-15 6.82603019e-05)
(4.790952619e-05 3.604099647e-15 9.125971297e-05)
(5.855347802e-05 4.481500161e-15 0.0001167013697)
(6.919575399e-05 5.519749944e-15 0.0001449274142)
(7.983602518e-05 6.73106531e-15 0.0001761590055)
(9.047402912e-05 8.118816658e-15 0.0002104738)
(0.0001011096275 9.676048426e-15 0.0002477832072)
(0.0001117428712 1.138387315e-14 0.0002878095014)
(0.0001223740652 1.321005276e-14 0.0003300629089)
(0.0001330038209 1.510768104e-14 0.0003738188441)
(0.0001436330812 1.701402622e-14 0.0004180956588)
(0.000154263098 1.88496883e-14 0.000461633301)
(0.000164895339 2.051817745e-14 0.0005028735774)
(0.0001755312945 2.190603055e-14 0.0005399427635)
(0.0001861721549 2.28835478e-14 0.0005706376076)
(0.0001968183273 2.330642923e-14 0.0005924158721)
(0.0002074687621 2.301825908e-14 0.0006023927681)
(0.0002181200661 2.185397886e-14 0.0005973446938)
(0.0002287653925 1.964456782e-14 0.000573721768)
(0.0002393925137 1.6223064e-14 0.0005276731996)
(0.0002499847122 1.143093877e-14 0.0004550739372)
(0.0002605155184 5.126781814e-15 0.0003515739324)
(0.0002709494803 -2.804144059e-15 0.0002126699917)
(0.0002812399045 -1.244110343e-14 3.374950538e-05)
(0.0002913276292 -2.381581547e-14 -0.0001897932484)
(0.0003011399409 -3.690322062e-14 -0.0004625038704)
(0.0003105904614 -5.160939031e-14 -0.0007887276231)
(0.0003195792666 -6.776203806e-14 -0.001172555145)
(0.0003279945267 -8.510302237e-14 -0.001617673363)
(0.0003357141943 -1.032831174e-13 -0.002127326678)
(0.0003426095912 -1.218551346e-13 -0.002704179452)
(0.0003485484408 -1.402753344e-13 -0.003350311109)
(0.0003533998703 -1.579070455e-13 -0.004067111187)
(0.0003570378506 -1.740285328e-13 -0.004855323043)
(0.0003593464116 -1.878474342e-13 -0.00571498638)
(0.0003602221331 -1.985177715e-13 -0.006645534276)
(0.0003595781783 -2.051666206e-13 -0.007645785977)
(0.0003573446867 -2.06920351e-13 -0.008714088023)
(0.0003534707289 -2.029429217e-13 -0.00984834542)
(0.0003479222735 -1.924693329e-13 -0.01104618453)
(0.0003406821298 -1.74852106e-13 -0.01230499905)
(0.0003317461723 -1.495971945e-13 -0.0136221055)
(0.0003211222242 -1.16411638e-13 -0.01499477694)
(0.0003088258525 -7.523399372e-14 -0.01642036493)
(0.0002948794857 -2.627229318e-14 -0.01789630018)
(0.0002793090674 2.998214504e-14 -0.01942016607)
(0.0002621444277 9.274066348e-14 -0.02098965789)
(0.0002434175957 1.609333903e-13 -0.02260260627)
(0.0002231649366 2.332346695e-13 -0.02425689691)
(0.0002014274858 3.081219727e-13 -0.0259504484)
(0.0001782551521 3.839537374e-13 -0.02768109423)
(0.0001537095541 4.590791229e-13 -0.02944651105)
(0.0001278710794 5.31973429e-13 -0.03124404849)
(0.0001008456601 6.013984728e-13 -0.0330705774)
(7.277682428e-05 6.665915232e-13 -0.03492221756)
(4.385968613e-05 7.274737954e-13 -0.03679402603)
(1.436218957e-05 7.848975718e-13 -0.0386795103)
)
;

boundaryField
{
    left
    {
        type            fixedValue;
        value           uniform (0 0 0);
    }
    right
    {
        type            fixedValue;
        value           uniform (-4.946333974e-07 8.119182293e-13 -0.03962485623);
    }
    beam
    {
        type            empty;
    }
}


// ************************************************************************* //
