/*--------------------------------*- C++ -*----------------------------------*\
| =========                 |                                                 |
| \\      /  F ield         | OpenFOAM: The Open Source CFD Toolbox           |
|  \\    /   O peration     | Version:  2312                                  |
|   \\  /    A nd           | Website:  www.openfoam.com                      |
|    \\/     M anipulation  |                                                 |
\*---------------------------------------------------------------------------*/
FoamFile
{
    version     2.0;
    format      ascii;
    arch        "LSB;label=32;scalar=64";
    class       volScalarField;
    location    "0.21";
    object      p;
}
// * * * * * * * * * * * * * * * * * * * * * * * * * * * * * * * * * * * * * //

dimensions      [1 -1 -2 0 0 0 0];

internalField   nonuniform List<scalar> 
299556
(
19.37475533
19.37476603
19.37477682
19.37478775
19.37479887
19.37481025
19.37482193
19.37483399
19.37484647
19.37485945
19.37487297
19.3748871
19.3749019
19.37491744
19.37493378
19.37495098
19.37496911
19.37498824
19.37500842
19.37502973
19.37505222
19.37507595
19.37510099
19.37512739
19.37515521
19.37518447
19.37521523
19.37524752
19.37528136
19.37531677
19.37535373
19.37539225
19.37543228
19.37547379
19.37551671
19.37556096
19.37560642
19.37565297
19.37570045
19.37574867
19.37579744
19.37584652
19.37589564
19.37594453
19.37599287
19.37604033
19.37608656
19.37613121
19.37617389
19.37621423
19.37625184
19.37628636
19.37631743
19.37634469
19.37636783
19.37638655
19.37640062
19.37640981
19.37641397
19.37641297
19.37640674
19.37639527
19.3763786
19.37635681
19.37633003
19.37629845
19.37626227
19.37622174
19.37617713
19.37612874
19.37607688
19.37602187
19.37596402
19.37590366
19.37584108
19.37577659
19.37571046
19.37564294
19.37557428
19.37550467
19.37543432
19.37536337
19.37529197
19.37522022
19.37514822
19.37507604
19.37500373
19.37493133
19.37485885
19.37478631
19.37476591
19.3747979
19.37483013
19.37486278
19.37489602
19.37493001
19.37496493
19.37500096
19.37503826
19.37507702
19.37511742
19.37515964
19.37520388
19.37525031
19.37529913
19.37535054
19.37540472
19.37546187
19.37552218
19.37558585
19.37565306
19.37572399
19.37579883
19.37587772
19.37596084
19.37604831
19.37614025
19.37623676
19.3763379
19.37644372
19.37655422
19.37666935
19.37678903
19.37691312
19.37704144
19.37717372
19.37730965
19.37744883
19.37759081
19.37773503
19.37788088
19.37802765
19.37817458
19.3783208
19.37846539
19.37860737
19.37874569
19.37887926
19.37900697
19.37912768
19.37924024
19.37934355
19.37943652
19.37951811
19.37958737
19.37964344
19.37968556
19.37971309
19.37972555
19.37972257
19.37970394
19.37966964
19.37961977
19.37955459
19.37947449
19.37938
19.37927175
19.37915049
19.37901705
19.37887229
19.37871716
19.3785526
19.37837957
19.37819901
19.37801186
19.37781898
19.3776212
19.3774193
19.37721398
19.37700586
19.37679551
19.37658339
19.37636992
19.37615543
19.3759402
19.37572443
19.37550828
19.37529187
19.37507525
19.37485847
19.3747764
19.37482948
19.37488296
19.37493713
19.37499228
19.37504868
19.37510662
19.37516639
19.37522829
19.37529261
19.37535964
19.3754297
19.3755031
19.37558015
19.37566116
19.37574646
19.37583636
19.3759312
19.37603128
19.37613694
19.37624847
19.37636619
19.37649037
19.37662131
19.37675925
19.37690442
19.37705701
19.37721719
19.37738508
19.37756072
19.37774413
19.37793525
19.37813393
19.37833994
19.37855297
19.3787726
19.3789983
19.37922941
19.37946517
19.37970467
19.37994689
19.38019067
19.38043471
19.3806776
19.38091781
19.38115368
19.38138349
19.38160544
19.38181765
19.38201824
19.38220532
19.38237702
19.38253154
19.38266717
19.38278232
19.38287554
19.38294557
19.38299137
19.38301213
19.3830072
19.38297629
19.38291932
19.38283648
19.38272818
19.3825951
19.3824381
19.38225825
19.38205679
19.38183508
19.38159459
19.38133687
19.3810635
19.38077608
19.38047617
19.38016532
19.37984498
19.37951652
19.37918124
19.37884029
19.37849471
19.37814544
19.37779326
19.37743885
19.37708277
19.37672547
19.37636729
19.37600849
19.37564927
19.37528974
19.37492998
19.37478673
19.37486056
19.37493496
19.37501032
19.37508704
19.37516551
19.37524612
19.37532927
19.37541538
19.37550486
19.37559812
19.37569559
19.37579771
19.3759049
19.37601761
19.37613629
19.37626138
19.37639333
19.37653258
19.37667959
19.37683479
19.37699859
19.3771714
19.3773536
19.37754556
19.37774759
19.37795996
19.37818289
19.37841656
19.37866104
19.37891635
19.37918239
19.37945898
19.3797458
19.38004241
19.38034822
19.38066251
19.38098436
19.38131271
19.38164631
19.38198372
19.38232333
19.38266333
19.38300176
19.38333648
19.3836652
19.3839855
19.38429486
19.38459068
19.38487034
19.38513118
19.3853706
19.3855861
19.38577526
19.38593587
19.38606592
19.38616366
19.3862276
19.38625661
19.38624983
19.3862068
19.38612744
19.386012
19.38586108
19.38567559
19.38545678
19.38520611
19.38492533
19.38461634
19.3842812
19.38392207
19.38354115
19.38314067
19.38272284
19.38228978
19.38184353
19.38138603
19.38091905
19.38044421
19.37996297
19.3794766
19.37898623
19.37849278
19.37799704
19.37749961
19.377001
19.37650156
19.37600155
19.37550114
19.37500046
19.37479683
19.37489096
19.37498583
19.37508192
19.37517974
19.37527978
19.37538256
19.37548859
19.37559839
19.37571248
19.3758314
19.37595569
19.3760859
19.37622259
19.37636632
19.37651765
19.37667717
19.37684544
19.37702304
19.37721052
19.37740845
19.37761736
19.37783778
19.37807019
19.37831504
19.37857275
19.37884367
19.37912808
19.3794262
19.37973814
19.38006391
19.38040341
19.38075639
19.38112245
19.38150104
19.38189142
19.38229265
19.38270358
19.38312284
19.38354885
19.38397978
19.38441356
19.3848479
19.38528027
19.38570796
19.38612803
19.38653739
19.38693282
19.387311
19.38766854
19.38800207
19.38830826
19.38858388
19.38882585
19.38903134
19.38919776
19.38932286
19.38940476
19.38944199
19.38943344
19.38937854
19.38927719
19.38912969
19.38893683
19.38869978
19.38842011
19.38809976
19.38774092
19.38734605
19.38691778
19.38645889
19.3859722
19.38546057
19.38492681
19.38437366
19.38380372
19.38321946
19.38262315
19.38201686
19.38140246
19.38078158
19.38015563
19.37952581
19.3788931
19.3782583
19.37762202
19.37698472
19.37634673
19.37570828
19.37506951
19.37480664
19.3749205
19.37503524
19.37515147
19.37526979
19.3753908
19.37551513
19.37564338
19.37577619
19.3759142
19.37605805
19.3762084
19.37636591
19.37653127
19.37670514
19.37688822
19.3770812
19.37728478
19.37749965
19.37772649
19.37796597
19.37821876
19.37848547
19.37876671
19.37906303
19.37937492
19.37970282
19.38004707
19.38040794
19.38078556
19.38117996
19.38159101
19.38201843
19.38246173
19.38292025
19.3833931
19.38387914
19.38437699
19.384885
19.38540125
19.38592353
19.38644933
19.38697589
19.38750013
19.38801877
19.38852824
19.3890248
19.38950452
19.38996338
19.39039727
19.39080208
19.39117376
19.39150838
19.39180221
19.39205178
19.39225395
19.39240598
19.39250557
19.39255095
19.39254076
19.39247431
19.39235147
19.39217262
19.39193871
19.39165118
19.39131195
19.39092337
19.39048812
19.3900092
19.38948981
19.38893333
19.38834319
19.38772288
19.3870758
19.3864053
19.38571453
19.38500648
19.38428392
19.38354936
19.38280504
19.38205296
19.38129481
19.38053204
19.37976585
19.37899718
19.37822678
19.3774552
19.37668284
19.37590996
19.37513674
19.3748161
19.37494899
19.3750829
19.37521855
19.37535664
19.37549788
19.37564299
19.37579268
19.3759477
19.37610878
19.37627668
19.37645217
19.37663603
19.37682904
19.377032
19.37724572
19.377471
19.37770866
19.37795951
19.37822434
19.37850395
19.3787991
19.37911053
19.37943894
19.37978498
19.38014922
19.38053219
19.38093429
19.38135582
19.38179697
19.38225776
19.38273806
19.38323752
19.38375561
19.38429154
19.38484428
19.38541252
19.38599465
19.38658874
19.38719255
19.38780349
19.38841866
19.38903481
19.38964835
19.39025542
19.39085186
19.39143328
19.39199509
19.39253255
19.39304084
19.39351515
19.39395072
19.39434292
19.39468738
19.39498002
19.39521715
19.39539553
19.39551249
19.39556591
19.39555422
19.3954766
19.39533289
19.39512357
19.39484973
19.39451308
19.39411589
19.39366092
19.39315132
19.39259062
19.3919826
19.39133122
19.39064052
19.38991459
19.38915744
19.38837297
19.38756491
19.38673675
19.38589172
19.38503276
19.38416252
19.3832833
19.3823971
19.38150559
19.38061017
19.37971194
19.37881176
19.37791026
19.37700791
19.37610501
19.37520176
19.37482516
19.37497625
19.37512852
19.37528276
19.37543977
19.37560037
19.37576537
19.37593558
19.37611185
19.37629502
19.37648595
19.37668551
19.37689459
19.37711408
19.3773449
19.37758795
19.37784417
19.37811447
19.37839979
19.37870102
19.37901908
19.37935483
19.37970912
19.38008275
19.38047645
19.38089091
19.3813267
19.3817843
19.38226406
19.38276619
19.38329074
19.38383754
19.38440622
19.38499619
19.38560656
19.38623615
19.38688349
19.38754674
19.38822373
19.3889119
19.38960832
19.39030967
19.39101225
19.391712
19.39240448
19.39308496
19.39374842
19.39438961
19.39500313
19.39558347
19.3961251
19.39662258
19.39707063
19.39746421
19.39779867
19.39806976
19.3982738
19.39840768
19.39846901
19.39845597
19.39836763
19.39820381
19.39796506
19.39765264
19.39726852
19.3968153
19.39629614
19.39571469
19.39507497
19.39438132
19.39363828
19.3928505
19.39202263
19.39115929
19.39026492
19.38934379
19.38839989
19.3874369
19.38645819
19.38546676
19.38446523
19.38345587
19.3824406
19.38142098
19.38039826
19.37937342
19.37834716
19.37731999
19.37629225
19.37526417
19.37483376
19.37500212
19.3751718
19.37534368
19.37551866
19.37569763
19.3758815
19.37607119
19.37626763
19.37647177
19.37668455
19.37690697
19.37713999
19.37738463
19.37764189
19.37791281
19.37819841
19.37849972
19.37881777
19.37915359
19.37950817
19.37988251
19.38027754
19.38069416
19.3811332
19.38159541
19.38208145
19.38259186
19.38312704
19.38368723
19.38427249
19.38488265
19.38551732
19.38617581
19.38685717
19.38756009
19.38828293
19.38902365
19.38977984
19.39054865
19.39132681
19.39211063
19.39289596
19.39367826
19.39445259
19.39521364
19.39595581
19.39667321
19.39735978
19.39800934
19.3986157
19.39917274
19.39967453
19.40011543
19.40049019
19.40079405
19.40102285
19.40117312
19.40124218
19.40122795
19.40112941
19.40094636
19.40067941
19.40033001
19.39990035
19.39939339
19.39881266
19.39816228
19.39744678
19.39667105
19.39584017
19.39495938
19.3940339
19.3930689
19.39206939
19.39104012
19.38998558
19.38890988
19.38781679
19.38670966
19.38559141
19.38446458
19.38333128
19.38219326
19.38105191
19.37990829
19.37876318
19.37761715
19.37647054
19.3753236
19.37484184
19.37502645
19.37521249
19.37540096
19.37559282
19.37578906
19.37599068
19.37619868
19.37641409
19.37663794
19.37687128
19.37711518
19.37737072
19.37763901
19.37792116
19.37821828
19.37853152
19.378862
19.37921086
19.37957923
19.37996821
19.38037887
19.38081226
19.38126937
19.38175111
19.38225832
19.38279173
19.38335193
19.38393937
19.38455433
19.38519688
19.38586685
19.38656381
19.38728704
19.38803549
19.38880773
19.38960199
19.39041602
19.3912472
19.39209239
19.39294802
19.39381002
19.39467386
19.39553453
19.3963866
19.39722423
19.39804123
19.39883112
19.39958723
19.40030272
19.40097076
19.4015846
19.40213767
19.40262374
19.403037
19.4033722
19.40362472
19.40379073
19.40386724
19.403852
19.40374384
19.40354256
19.40324885
19.40286429
19.40239135
19.40183328
19.40119402
19.40047812
19.3996906
19.39883687
19.39792257
19.39695347
19.39593535
19.39487392
19.3937747
19.39264295
19.3914836
19.39030118
19.38909984
19.38788325
19.38665463
19.38541675
19.38417194
19.38292209
19.38166872
19.38041297
19.3791557
19.37789749
19.37663873
19.37537966
19.37484935
19.37504907
19.37525034
19.37545423
19.3756618
19.37587411
19.37609223
19.37631727
19.37655032
19.3767925
19.37704497
19.37730886
19.37758536
19.37787565
19.37818095
19.37850247
19.37884144
19.37919908
19.37957663
19.3799753
19.38039631
19.38084081
19.38130995
19.38180479
19.38232633
19.38287549
19.38345306
19.38405971
19.38469591
19.38536199
19.38605803
19.38678386
19.38753904
19.38832277
19.38913395
19.38997105
19.39083214
19.39171483
19.39261625
19.39353303
19.39446131
19.39539668
19.39633421
19.3972685
19.39819363
19.39910327
19.39999069
19.40084884
19.40167045
19.40244808
19.4031743
19.40384173
19.40444323
19.40497198
19.40542164
19.40578649
19.40606149
19.40624245
19.40632611
19.40631001
19.40619288
19.4059745
19.40565563
19.40523802
19.40472436
19.4041182
19.40342387
19.40264633
19.40179108
19.40086402
19.3998713
19.39881923
19.39771411
19.39656216
19.39536938
19.39414152
19.39288391
19.3916015
19.39029878
19.38897973
19.38764784
19.3863061
19.38495703
19.38360266
19.38224462
19.38088414
19.37952213
19.37815919
19.37679573
19.37543198
19.37485625
19.37506985
19.37528511
19.37550317
19.37572516
19.37595223
19.37618552
19.3764262
19.37667546
19.3769345
19.37720453
19.3774868
19.37778256
19.37809308
19.37841966
19.3787636
19.37912622
19.37950884
19.37991277
19.38033932
19.38078979
19.38126543
19.38176745
19.38229702
19.38285521
19.383443
19.38406125
19.38471068
19.38539183
19.38610503
19.3868504
19.38762776
19.38843665
19.38927625
19.39014536
19.39104239
19.39196526
19.39291143
19.39387785
19.39486092
19.39585648
19.39685984
19.39786572
19.3988683
19.39986126
19.40083778
19.40179063
19.40271225
19.4035948
19.40443029
19.40521068
19.40592806
19.40657471
19.40714328
19.40762695
19.40801951
19.40831555
19.40851053
19.40860095
19.40858414
19.40845874
19.40822453
19.40788232
19.407434
19.4068825
19.40623166
19.40548615
19.40465134
19.40373317
19.40273801
19.40167249
19.40054342
19.3993576
19.39812172
19.39684225
19.39552535
19.39417678
19.39280184
19.39140534
19.38999156
19.38856423
19.38712655
19.38568119
19.38423035
19.38277572
19.38131862
19.37986
19.37840048
19.37694048
19.37548022
19.3748625
19.37508866
19.37531658
19.37554747
19.37578252
19.37602294
19.37626997
19.37652482
19.37678876
19.37706305
19.37734899
19.3776479
19.3779611
19.37828994
19.37863579
19.37900005
19.3793841
19.37978934
19.38021718
19.380669
19.38114617
19.38165003
19.38218188
19.38274294
19.38333437
19.38395721
19.38461238
19.38530065
19.38602261
19.38677862
19.3875688
19.388393
19.38925073
19.39014114
19.39106298
19.39201455
19.39299369
19.39399772
19.39502339
19.3960669
19.39712387
19.3981893
19.3992576
19.4003226
19.40137758
19.4024153
19.40342806
19.40440781
19.40534621
19.40623474
19.40706485
19.40782808
19.40851619
19.40912137
19.40963629
19.41005437
19.4103698
19.41057773
19.41067443
19.41065706
19.41052416
19.4102755
19.40991194
19.40943553
19.4088494
19.40815765
19.40736529
19.40647806
19.40550231
19.40444485
19.40331276
19.4021133
19.40085373
19.39954119
19.39818257
19.39678442
19.39535287
19.39389357
19.39241161
19.39091154
19.38939731
19.3878723
19.38633935
19.38480075
19.38325831
19.38171338
19.38016696
19.37861969
19.37707197
19.37552404
19.37486806
19.37510538
19.37534456
19.37558685
19.37583351
19.37608582
19.37634505
19.3766125
19.37688949
19.37717735
19.37747744
19.37779114
19.37811985
19.37846499
19.378828
19.37921032
19.37961344
19.38003881
19.38048793
19.38096223
19.38146318
19.38199217
19.38255058
19.38313969
19.38376073
19.38441481
19.38510288
19.38582578
19.38658412
19.38737831
19.38820849
19.38907449
19.38997583
19.39091162
19.39188056
19.3928809
19.39391036
19.39496613
19.39604483
19.39714248
19.39825445
19.39937552
19.4004998
19.40162081
19.40273146
19.40382413
19.40489073
19.40592274
19.40691137
19.40784764
19.40872252
19.40952705
19.41025255
19.41089073
19.41143388
19.41187499
19.41220795
19.41242763
19.41253007
19.41251226
19.41237267
19.41211105
19.41172834
19.4112267
19.41060944
19.40988094
19.40904648
19.40811215
19.40708468
19.40597127
19.40477941
19.40351679
19.40219106
19.40080978
19.3993802
19.39790926
19.39640341
19.39486859
19.39331016
19.39173291
19.39014099
19.38853795
19.38692674
19.38530977
19.38368891
19.38206559
19.38044081
19.37881524
19.37718927
19.37556313
19.37487288
19.37511991
19.37536887
19.37562107
19.37587783
19.37614046
19.3764103
19.3766887
19.37697703
19.37727669
19.37758908
19.37791564
19.37825784
19.37861714
19.37899505
19.3793931
19.37981279
19.38025568
19.3807233
19.38121717
19.3817388
19.38228966
19.38287118
19.38348471
19.38413153
19.3848128
19.38552954
19.3862826
19.38707265
19.38790012
19.38876516
19.38966762
19.390607
19.3915824
19.39259247
19.39363539
19.39470881
19.39580981
19.39693489
19.39807988
19.39923999
19.40040977
19.40158308
19.40275317
19.40391263
19.40505351
19.40616734
19.40724525
19.40827801
19.40925623
19.41017046
19.41101133
19.41176973
19.41243698
19.41300498
19.41346641
19.41381485
19.41404491
19.41415244
19.4141343
19.41398889
19.41371593
19.41331643
19.41279265
19.41214809
19.41138732
19.41051592
19.40954027
19.40846742
19.40730493
19.40606067
19.40474268
19.40335899
19.40191749
19.4004258
19.39889115
19.39732029
19.39571943
19.39409416
19.39244947
19.39078969
19.3891185
19.38743899
19.38575363
19.38406437
19.38237267
19.38067956
19.37898571
19.37729153
19.37559721
19.37487695
19.37513217
19.37538937
19.37564993
19.37591519
19.37618652
19.37646531
19.37675294
19.37705084
19.37736044
19.3776832
19.37802061
19.37837418
19.37874543
19.37913592
19.37954722
19.3799809
19.38043856
19.38092179
19.38143217
19.38197126
19.38254058
19.38314161
19.38377576
19.38444435
19.38514859
19.38588953
19.38666808
19.38748493
19.38834053
19.38923505
19.39016835
19.39113991
19.39214882
19.39319371
19.39427268
19.39538334
19.39652267
19.39768705
19.39887219
19.40007314
19.40128426
19.4024992
19.40371097
19.40491191
19.40609377
19.40724778
19.40836472
19.40943504
19.41044899
19.41139674
19.41226857
19.41305502
19.41374706
19.41433628
19.41481506
19.41517672
19.41541567
19.41552759
19.41550922
19.41535888
19.4150763
19.41466253
19.41411994
19.41345215
19.41266395
19.41176113
19.41075033
19.40963891
19.40843471
19.40714592
19.40578088
19.40434796
19.40285535
19.40131094
19.39972224
19.39809625
19.3964394
19.39475749
19.39305566
19.39133841
19.38960953
19.38787219
19.38612896
19.38438184
19.3826323
19.38088141
19.37912984
19.37737798
19.37562602
19.37488024
19.37514206
19.37540592
19.37567323
19.37594536
19.37622373
19.37650974
19.37680483
19.37711045
19.37742808
19.37775922
19.37810539
19.37846814
19.37884905
19.3792497
19.37967171
19.38011669
19.38058629
19.38108214
19.38160586
19.38215906
19.3827433
19.38336011
19.38401093
19.38469713
19.38541994
19.38618047
19.38697965
19.38781818
19.38869655
19.38961494
19.39057321
19.39157084
19.3926069
19.39368
19.39478821
19.39592906
19.39709948
19.39829575
19.39951348
19.40074758
19.40199227
19.40324104
19.40448668
19.40572134
19.40693653
19.40812322
19.40927194
19.41037284
19.41141588
19.41239095
19.41328802
19.41409734
19.4148096
19.41541613
19.41590907
19.41628154
19.41652776
19.41664329
19.41662475
19.41647043
19.41618004
19.41575467
19.41519677
19.41451009
19.41369957
19.41277118
19.4117318
19.41058899
19.40935087
19.40802586
19.4066226
19.40514967
19.40361552
19.40202829
19.40039571
19.39872497
19.39702269
19.39529482
19.39354667
19.39178281
19.39000717
19.38822298
19.38643287
19.38463887
19.3828425
19.38104482
19.37924651
19.37744795
19.37564933
19.37488272
19.37514953
19.37541843
19.37569083
19.37596816
19.37625183
19.3765433
19.37684403
19.37715548
19.37747918
19.37781665
19.37816945
19.37853914
19.37892734
19.37933567
19.37976577
19.3802193
19.38069793
19.38120332
19.38173712
19.38230099
19.38289651
19.38352525
19.38418868
19.38488819
19.38562506
19.38640041
19.38721519
19.38807014
19.38896574
19.3899022
19.39087937
19.39189675
19.39295338
19.39404785
19.39517821
19.39634195
19.39753593
19.39875639
19.39999884
19.4012581
19.40252827
19.40380271
19.40507408
19.40633435
19.40757486
19.4087864
19.40995927
19.41108343
19.4121486
19.41314445
19.41406073
19.41488746
19.41561512
19.41623484
19.41673858
19.41711929
19.41737107
19.41748936
19.41747071
19.41731337
19.41701705
19.41658287
19.41601334
19.4153123
19.41448481
19.413537
19.41247589
19.41130923
19.41004533
19.40869282
19.40726052
19.40575721
19.40419153
19.40257181
19.40090592
19.39920124
19.3974645
19.39570179
19.39391851
19.39211934
19.39030827
19.38848859
19.38666296
19.38483346
19.38300163
19.38116852
19.37933483
19.37750093
19.37566698
19.37488439
19.37515454
19.37542681
19.37570263
19.37598344
19.37627067
19.3765658
19.3768703
19.37718567
19.37751343
19.37785515
19.37821238
19.37858673
19.37897982
19.37939329
19.37982882
19.38028808
19.38077275
19.38128454
19.38182511
19.38239612
19.38299921
19.38363595
19.38430784
19.38501628
19.38576258
19.38654787
19.38737311
19.38823907
19.38914624
19.39009483
19.39108469
19.39211532
19.39318576
19.39429458
19.39543982
19.39661893
19.39782876
19.39906546
19.40032453
19.4016007
19.402888
19.40417971
19.40546839
19.40674589
19.40800345
19.4092317
19.41042083
19.41156065
19.41264073
19.41365058
19.4145798
19.41541827
19.41615631
19.41678492
19.41729594
19.41768221
19.41793774
19.4180579
19.41803919
19.41787982
19.41757952
19.41713941
19.41656205
19.41585135
19.41501244
19.41405155
19.41297581
19.41179311
19.41051186
19.40914085
19.407689
19.40616526
19.40457838
19.4029368
19.40124853
19.39952103
19.39776113
19.39597501
19.39416814
19.39234525
19.39051038
19.38866686
19.3868174
19.38496407
19.38310842
19.38125154
19.3793941
19.37753648
19.37567883
19.37488522
19.37515706
19.37543102
19.37570855
19.3759911
19.37628012
19.37657708
19.37688347
19.37720081
19.37753061
19.37787446
19.37823391
19.3786106
19.37900614
19.3794222
19.37986045
19.38032258
19.38081029
19.38132528
19.38186924
19.38244385
19.38305073
19.38369148
19.38436761
19.38508054
19.38583157
19.38662184
19.38745235
19.38832383
19.38923681
19.39019148
19.39118772
19.392225
19.39330238
19.39441841
19.39557112
19.39675795
19.39797573
19.3992206
19.40048801
19.40177268
19.4030686
19.40436899
19.40566636
19.40695253
19.40821865
19.40945532
19.41065263
19.41180032
19.4128879
19.4139048
19.41484053
19.4156849
19.41642817
19.41706126
19.41757595
19.41796502
19.41822243
19.41834353
19.41832479
19.41816441
19.41786211
19.41741902
19.41683772
19.41612216
19.4152775
19.41431003
19.41322695
19.41203617
19.41074621
19.40936589
19.40790422
19.40637021
19.40477267
19.40312011
19.40142059
19.39968161
19.39791008
19.39611221
19.39429348
19.39245867
19.39061185
19.38875637
19.38689493
19.38502963
19.38316203
19.38129321
19.37942385
19.37755432
19.37568478
19.37488522
19.37515706
19.37543102
19.37570855
19.3759911
19.37628012
19.37657708
19.37688347
19.37720081
19.37753061
19.37787446
19.37823391
19.3786106
19.37900614
19.3794222
19.37986045
19.38032258
19.38081029
19.38132528
19.38186924
19.38244385
19.38305073
19.38369148
19.38436761
19.38508054
19.38583157
19.38662184
19.38745235
19.38832384
19.38923681
19.39019148
19.39118772
19.392225
19.39330238
19.39441841
19.39557112
19.39675795
19.39797573
19.3992206
19.40048801
19.40177269
19.4030686
19.40436899
19.40566636
19.40695253
19.40821866
19.40945532
19.41065263
19.41180033
19.41288791
19.4139048
19.41484053
19.4156849
19.41642817
19.41706126
19.41757595
19.41796502
19.41822244
19.41834354
19.41832479
19.41816441
19.41786211
19.41741902
19.41683772
19.41612216
19.41527751
19.41431004
19.41322695
19.41203618
19.41074621
19.40936589
19.40790422
19.40637021
19.40477267
19.40312011
19.40142059
19.39968162
19.39791009
19.39611221
19.39429348
19.39245867
19.39061185
19.38875637
19.38689493
19.38502963
19.38316204
19.38129321
19.37942385
19.37755432
19.37568478
19.37488439
19.37515454
19.37542681
19.37570263
19.37598344
19.37627067
19.3765658
19.3768703
19.37718567
19.37751344
19.37785515
19.37821238
19.37858673
19.37897982
19.37939329
19.37982882
19.38028808
19.38077275
19.38128454
19.38182511
19.38239612
19.38299922
19.38363595
19.38430784
19.38501628
19.38576258
19.38654787
19.38737312
19.38823908
19.38914624
19.39009483
19.39108469
19.39211532
19.39318576
19.39429459
19.39543982
19.39661894
19.39782876
19.39906547
19.40032453
19.4016007
19.40288801
19.40417972
19.40546839
19.4067459
19.40800345
19.40923171
19.41042084
19.41156066
19.41264074
19.41365059
19.41457981
19.41541827
19.41615632
19.41678493
19.41729595
19.41768222
19.41793775
19.41805791
19.41803919
19.41787983
19.41757953
19.41713942
19.41656206
19.41585136
19.41501245
19.41405155
19.41297582
19.41179312
19.41051187
19.40914085
19.40768901
19.40616527
19.40457839
19.40293681
19.40124854
19.39952103
19.39776114
19.39597502
19.39416814
19.39234525
19.39051038
19.38866686
19.3868174
19.38496407
19.38310842
19.38125154
19.3793941
19.37753648
19.37567883
19.37488272
19.37514953
19.37541843
19.37569083
19.37596816
19.37625183
19.3765433
19.37684403
19.37715548
19.37747919
19.37781666
19.37816945
19.37853914
19.37892735
19.37933567
19.37976577
19.3802193
19.38069793
19.38120332
19.38173713
19.38230099
19.38289651
19.38352525
19.38418868
19.38488819
19.38562506
19.38640041
19.38721519
19.38807014
19.38896574
19.3899022
19.39087937
19.39189675
19.39295338
19.39404785
19.39517821
19.39634195
19.39753594
19.39875639
19.39999884
19.4012581
19.40252827
19.40380272
19.40507409
19.40633436
19.40757487
19.40878641
19.40995928
19.41108344
19.41214861
19.41314446
19.41406074
19.41488747
19.41561513
19.41623486
19.4167386
19.41711931
19.41737108
19.41748937
19.41747072
19.41731338
19.41701707
19.41658289
19.41601335
19.41531231
19.41448482
19.41353701
19.4124759
19.41130925
19.41004534
19.40869284
19.40726053
19.40575722
19.40419154
19.40257182
19.40090593
19.39920124
19.3974645
19.3957018
19.39391852
19.39211935
19.39030827
19.38848859
19.38666297
19.38483347
19.38300163
19.38116852
19.37933483
19.37750093
19.37566698
19.37488024
19.37514206
19.37540592
19.37567323
19.37594536
19.37622373
19.37650974
19.37680483
19.37711045
19.37742808
19.37775922
19.37810539
19.37846815
19.37884905
19.3792497
19.37967171
19.38011669
19.3805863
19.38108214
19.38160586
19.38215906
19.3827433
19.38336011
19.38401093
19.38469713
19.38541994
19.38618048
19.38697965
19.38781819
19.38869655
19.38961494
19.39057321
19.39157084
19.39260691
19.39368
19.39478821
19.39592907
19.39709948
19.39829575
19.39951348
19.40074759
19.40199228
19.40324105
19.40448669
19.40572135
19.40693654
19.40812323
19.40927195
19.41037285
19.4114159
19.41239096
19.41328804
19.41409735
19.41480962
19.41541615
19.41590909
19.41628156
19.41652778
19.41664331
19.41662477
19.41647045
19.41618006
19.41575469
19.41519679
19.41451011
19.41369958
19.4127712
19.41173182
19.41058901
19.40935088
19.40802588
19.40662261
19.40514968
19.40361553
19.40202831
19.40039572
19.39872498
19.3970227
19.39529483
19.39354667
19.39178282
19.39000718
19.38822299
19.38643288
19.38463888
19.3828425
19.38104482
19.37924651
19.37744796
19.37564933
19.37487695
19.37513217
19.37538937
19.37564993
19.37591519
19.37618653
19.37646531
19.37675294
19.37705084
19.37736044
19.3776832
19.37802061
19.37837418
19.37874543
19.37913592
19.37954722
19.3799809
19.38043857
19.3809218
19.38143217
19.38197126
19.38254058
19.38314161
19.38377576
19.38444435
19.38514859
19.38588954
19.38666809
19.38748494
19.38834054
19.38923506
19.39016836
19.39113992
19.39214883
19.39319371
19.39427269
19.39538335
19.39652268
19.39768706
19.3988722
19.40007315
19.40128427
19.40249922
19.40371098
19.40491192
19.40609378
19.40724779
19.40836473
19.40943506
19.41044901
19.41139676
19.41226859
19.41305504
19.41374708
19.4143363
19.41481508
19.41517674
19.41541569
19.41552762
19.41550924
19.4153589
19.41507633
19.41466256
19.41411996
19.41345217
19.41266397
19.41176115
19.41075036
19.40963893
19.40843473
19.40714593
19.4057809
19.40434798
19.40285536
19.40131095
19.39972225
19.39809626
19.39643941
19.3947575
19.39305567
19.39133841
19.38960953
19.3878722
19.38612897
19.38438184
19.3826323
19.38088141
19.37912984
19.37737798
19.37562602
19.37487288
19.37511991
19.37536887
19.37562107
19.37587783
19.37614046
19.3764103
19.3766887
19.37697703
19.37727669
19.37758908
19.37791564
19.37825784
19.37861714
19.37899506
19.3793931
19.3798128
19.38025568
19.3807233
19.38121717
19.3817388
19.38228966
19.38287118
19.38348472
19.38413154
19.38481281
19.38552954
19.38628261
19.38707266
19.38790013
19.38876517
19.38966763
19.39060701
19.39158241
19.39259248
19.3936354
19.39470882
19.39580982
19.3969349
19.39807989
19.39924
19.40040978
19.4015831
19.40275318
19.40391264
19.40505353
19.40616736
19.40724526
19.40827803
19.40925625
19.41017048
19.41101135
19.41176975
19.412437
19.41300501
19.41346644
19.41381488
19.41404494
19.41415247
19.41413433
19.41398892
19.41371596
19.41331646
19.41279268
19.41214812
19.41138735
19.41051595
19.4095403
19.40846745
19.40730496
19.4060607
19.4047427
19.40335901
19.40191751
19.40042582
19.39889117
19.39732031
19.39571944
19.39409418
19.39244948
19.3907897
19.38911851
19.38743899
19.38575363
19.38406437
19.38237267
19.38067956
19.37898572
19.37729153
19.37559721
19.37486806
19.37510538
19.37534456
19.37558685
19.37583351
19.37608582
19.37634505
19.3766125
19.37688949
19.37717735
19.37747744
19.37779115
19.37811985
19.37846499
19.378828
19.37921032
19.37961344
19.38003882
19.38048793
19.38096224
19.38146318
19.38199218
19.38255058
19.3831397
19.38376074
19.38441481
19.38510289
19.38582578
19.38658413
19.38737832
19.38820849
19.3890745
19.38997583
19.39091162
19.39188057
19.39288091
19.39391037
19.39496614
19.39604484
19.39714249
19.39825447
19.39937553
19.40049981
19.40162082
19.40273147
19.40382415
19.40489074
19.40592276
19.4069114
19.40784767
19.40872254
19.40952708
19.41025258
19.41089076
19.41143391
19.41187502
19.41220798
19.41242766
19.4125301
19.41251229
19.4123727
19.41211108
19.41172837
19.41122673
19.41060947
19.40988097
19.40904651
19.40811218
19.40708471
19.40597129
19.40477944
19.40351681
19.40219108
19.4008098
19.39938022
19.39790928
19.39640343
19.3948686
19.39331018
19.39173292
19.390141
19.38853796
19.38692675
19.38530978
19.38368892
19.3820656
19.38044081
19.37881524
19.37718928
19.37556313
19.3748625
19.37508866
19.37531658
19.37554747
19.37578252
19.37602295
19.37626997
19.37652482
19.37678876
19.37706305
19.377349
19.3776479
19.3779611
19.37828994
19.3786358
19.37900005
19.3793841
19.37978934
19.38021718
19.380669