/*--------------------------------*- C++ -*----------------------------------*\
| =========                 |                                                 |
| \\      /  F ield         | foam-extend: Open Source CFD                    |
|  \\    /   O peration     | Version:     4.0                                |
|   \\  /    A nd           | Web:         http://www.foam-extend.org         |
|    \\/     M anipulation  |                                                 |
\*---------------------------------------------------------------------------*/
FoamFile
{
    version     2.0;
    format      ascii;
    class       surfaceVectorField;
    location    "0";
    object      refTangent;
}
// * * * * * * * * * * * * * * * * * * * * * * * * * * * * * * * * * * * * * //

dimensions      [0 0 0 0 0 0 0];

internalField   nonuniform List<vector> 
693
(
(1 0 0)
(1 0 0)
(1 0 0)
(1 0 0)
(1 0 0)
(1 0 0)
(1 0 0)
(1 0 0)
(1 0 0)
(1 0 0)
(1 0 0)
(1 0 0)
(1 0 0)
(1 0 0)
(1 0 0)
(1 0 0)
(1 0 0)
(1 0 0)
(1 0 0)
(1 0 0)
(1 0 0)
(1 0 0)
(1 0 0)
(1 0 0)
(1 0 0)
(1 0 0)
(1 0 0)
(1 0 0)
(1 0 0)
(1 0 0)
(1 0 0)
(1 0 0)
(1 0 0)
(1 0 0)
(1 0 0)
(1 0 0)
(1 0 0)
(1 0 0)
(1 0 0)
(1 0 0)
(1 0 0)
(1 0 0)
(1 0 0)
(1 0 0)
(1 0 0)
(1 0 0)
(1 0 0)
(1 0 0)
(1 0 0)
(1 0 0)
(1 0 0)
(1 0 0)
(1 0 0)
(1 0 0)
(1 0 0)
(1 0 0)
(1 0 0)
(1 0 0)
(1 0 0)
(1 0 0)
(1 0 0)
(1 0 0)
(1 0 0)
(1 0 0)
(1 0 0)
(1 0 0)
(1 0 0)
(1 0 0)
(1 0 0)
(1 0 0)
(1 0 0)
(1 0 0)
(1 0 0)
(1 0 0)
(1 0 0)
(1 0 0)
(1 0 0)
(1 0 0)
(1 0 0)
(1 0 0)
(1 0 0)
(1 0 0)
(1 0 0)
(1 0 0)
(1 0 0)
(1 0 0)
(1 0 0)
(1 0 0)
(1 0 0)
(1 0 0)
(1 0 0)
(1 0 0)
(1 0 0)
(1 0 0)
(1 0 0)
(1 0 0)
(1 0 0)
(1 0 0)
(1 0 0)
(0.994934 -0.025001 0.0973726)
(0.994934 -0.0484312 0.088096)
(0.994934 -0.0688182 0.0732839)
(0.994934 -0.0848811 0.0538672)
(0.994934 -0.0956106 0.0310658)
(0.994934 -0.100333 0.00631239)
(0.994934 -0.0987503 -0.0188376)
(0.994934 -0.0909631 -0.042804)
(0.994934 -0.0774604 -0.0640808)
(0.994934 -0.0590906 -0.0813313)
(0.994934 -0.0370079 -0.0934713)
(0.994934 -0.0125999 -0.0997382)
(0.994934 0.0125999 -0.0997382)
(0.994934 0.0370079 -0.0934713)
(0.994934 0.0590906 -0.0813313)
(0.994934 0.0774604 -0.0640808)
(0.994934 0.0909631 -0.042804)
(0.994934 0.0987503 -0.0188376)
(0.994934 0.100333 0.00631239)
(0.994934 0.0956106 0.0310658)
(0.994934 0.0848811 0.0538672)
(0.994934 0.0688182 0.0732839)
(0.994934 0.0484312 0.088096)
(0.994934 0.025001 0.0973726)
(0.994934 2.4623e-17 0.100531)
(0.994934 -0.025001 0.0973726)
(0.994934 -0.0484312 0.088096)
(0.994934 -0.0688182 0.0732839)
(0.994934 -0.0848811 0.0538672)
(0.994934 -0.0956106 0.0310658)
(0.994934 -0.100333 0.00631239)
(0.994934 -0.0987503 -0.0188376)
(0.994934 -0.0909631 -0.042804)
(0.994934 -0.0774604 -0.0640808)
(0.994934 -0.0590906 -0.0813313)
(0.994934 -0.0370079 -0.0934713)
(0.994934 -0.0125999 -0.0997382)
(0.994934 0.0125999 -0.0997382)
(0.994934 0.0370079 -0.0934713)
(0.994934 0.0590906 -0.0813313)
(0.994934 0.0774604 -0.0640808)
(0.994934 0.0909631 -0.042804)
(0.994934 0.0987503 -0.0188376)
(0.994934 0.100333 0.00631239)
(0.994934 0.0956106 0.0310658)
(0.994934 0.0848811 0.0538672)
(0.994934 0.0688182 0.0732839)
(0.994934 0.0484312 0.088096)
(0.994934 0.025001 0.0973726)
(0.994934 5.84983e-16 0.100531)
(0.994934 -0.025001 0.0973726)
(0.994934 -0.0484312 0.088096)
(0.994934 -0.0688182 0.0732839)
(0.994934 -0.0848811 0.0538672)
(0.994934 -0.0956106 0.0310658)
(0.994934 -0.100333 0.00631239)
(0.994934 -0.0987503 -0.0188376)
(0.994934 -0.0909631 -0.042804)
(0.994934 -0.0774604 -0.0640808)
(0.994934 -0.0590906 -0.0813313)
(0.994934 -0.0370079 -0.0934713)
(0.994934 -0.0125999 -0.0997382)
(0.994934 0.0125999 -0.0997382)
(0.994934 0.0370079 -0.0934713)
(0.994934 0.0590906 -0.0813313)
(0.994934 0.0774604 -0.0640808)
(0.994934 0.0909631 -0.042804)
(0.994934 0.0987503 -0.0188376)
(0.994934 0.100333 0.00631239)
(0.994934 0.0956106 0.0310658)
(0.994934 0.0848811 0.0538672)
(0.994934 0.0688182 0.0732839)
(0.994934 0.0484312 0.088096)
(0.994934 0.025001 0.0973726)
(0.994934 1.5025e-15 0.100531)
(0.994934 -0.025001 0.0973726)
(0.994934 -0.0484312 0.088096)
(0.994934 -0.0688182 0.0732839)
(0.994934 -0.0848811 0.0538672)
(0.994934 -0.0956106 0.0310658)
(0.994934 -0.100333 0.00631239)
(0.994934 -0.0987503 -0.0188376)
(0.994934 -0.0909631 -0.042804)
(0.994934 -0.0774604 -0.0640808)
(0.994934 -0.0590906 -0.0813313)
(0.994934 -0.0370079 -0.0934713)
(0.994934 -0.0125999 -0.0997382)
(0.994934 0.0125999 -0.0997382)
(0.994934 0.0370079 -0.0934713)
(0.994934 0.0590906 -0.0813313)
(0.994934 0.0774604 -0.0640808)
(0.994934 0.0909631 -0.042804)
(0.994934 0.0987503 -0.0188376)
(0.994934 0.100333 0.00631239)
(0.994934 0.0956106 0.0310658)
(0.994934 0.0848811 0.0538672)
(0.994934 0.0688182 0.0732839)
(0.994934 0.0484312 0.088096)
(0.994934 0.025001 0.0973726)
(0.994934 -0.0968277 0.0270348)
(0.994934 -0.100509 0.00210536)
(0.994934 -0.0978748 -0.0229563)
(0.994934 -0.0890909 -0.0465756)
(0.994934 -0.0747091 -0.0672683)
(0.994934 -0.055633 -0.0837344)
(0.994934 -0.0330613 -0.0949391)
(0.994934 -0.00841221 -0.100178)
(0.994934 0.0167654 -0.0991231)
(0.994934 0.0408896 -0.0918396)
(0.994934 0.0624446 -0.0787855)
(0.994934 0.0800759 -0.0607809)
(0.994934 0.0926758 -0.0389573)
(0.994934 0.0994525 -0.0146859)
(0.994934 0.0999802 0.0105083)
(0.994934 0.0942259 0.0350423)
(0.994934 0.0825509 0.0573744)
(0.994934 0.065689 0.0761014)
(0.994934 0.0446996 0.0900468)
(0.994934 0.0209016 0.0983341)
(0.994934 -0.0042098 0.100443)
(0.994934 -0.0290566 0.0962403)
(0.994934 -0.0520778 0.0859906)
(0.994934 -0.0718266 0.0703378)
(0.994934 -0.0870624 0.0502655)
(0.994934 -0.0968277 0.0270348)
(0.994934 -0.100509 0.00210536)
(0.994934 -0.0978748 -0.0229563)
(0.994934 -0.0890909 -0.0465756)
(0.994934 -0.0747091 -0.0672683)
(0.994934 -0.055633 -0.0837344)
(0.994934 -0.0330613 -0.0949391)
(0.994934 -0.00841221 -0.100178)
(0.994934 0.0167654 -0.0991231)
(0.994934 0.0408896 -0.0918396)
(0.994934 0.0624446 -0.0787855)
(0.994934 0.0800759 -0.0607809)
(0.994934 0.0926758 -0.0389573)
(0.994934 0.0994525 -0.0146859)
(0.994934 0.0999802 0.0105083)
(0.994934 0.0942259 0.0350423)
(0.994934 0.0825509 0.0573744)
(0.994934 0.065689 0.0761014)
(0.994934 0.0446996 0.0900468)
(0.994934 0.0209016 0.0983341)
(0.994934 -0.0042098 0.100443)
(0.994934 -0.0290566 0.0962403)
(0.994934 -0.0520778 0.0859906)
(0.994934 -0.0718266 0.0703378)
(0.994934 -0.0870624 0.0502655)
(0.994934 -0.0968277 0.0270348)
(0.994934 -0.100509 0.00210536)
(0.994934 -0.0978748 -0.0229563)
(0.994934 -0.0890909 -0.0465756)
(0.994934 -0.0747091 -0.0672683)
(0.994934 -0.055633 -0.0837344)
(0.994934 -0.0330613 -0.0949391)
(0.994934 -0.00841221 -0.100178)
(0.994934 0.0167654 -0.0991231)
(0.994934 0.0408896 -0.0918396)
(0.994934 0.0624446 -0.0787855)
(0.994934 0.0800759 -0.0607809)
(0.994934 0.0926758 -0.0389573)
(0.994934 0.0994525 -0.0146859)
(0.994934 0.0999802 0.0105083)
(0.994934 0.0942259 0.0350423)
(0.994934 0.0825509 0.0573744)
(0.994934 0.065689 0.0761014)
(0.994934 0.0446996 0.0900468)
(0.994934 0.0209016 0.0983341)
(0.994934 -0.0042098 0.100443)
(0.994934 -0.0290566 0.0962403)
(0.994934 -0.0520778 0.0859906)
(0.994934 -0.0718266 0.0703378)
(0.994934 -0.0870624 0.0502655)
(0.994934 -0.0968277 0.0270348)
(0.994934 -0.100509 0.00210536)
(0.994934 -0.0978748 -0.0229563)
(0.994934 -0.0890909 -0.0465756)
(0.994934 -0.0747091 -0.0672683)
(0.994934 -0.055633 -0.0837344)
(0.994934 -0.0330613 -0.0949391)
(0.994934 -0.00841221 -0.100178)
(0.994934 0.0167654 -0.0991231)
(0.994934 0.0408896 -0.0918396)
(0.994934 0.0624446 -0.0787855)
(0.994934 0.0800759 -0.0607809)
(0.994934 0.0926758 -0.0389573)
(0.994934 0.0994525 -0.0146859)
(0.994934 0.0999802 0.0105083)
(0.994934 0.0942259 0.0350423)
(0.994934 0.0825509 0.0573744)
(0.994934 0.065689 0.0761014)
(0.994934 0.0446996 0.0900468)
(0.994934 0.0209016 0.0983341)
(0.994934 -0.0042098 0.100443)
(0.994934 -0.0290566 0.0962403)
(0.994934 -0.0520778 0.0859906)
(0.994934 -0.0718266 0.0703378)
(0.994934 -0.0718266 -0.0703378)
(0.994934 -0.0520778 -0.0859906)
(0.994934 -0.0290566 -0.0962403)
(0.994934 -0.0042098 -0.100443)
(0.994934 0.0209016 -0.0983341)
(0.994934 0.0446996 -0.0900468)
(0.994934 0.065689 -0.0761014)
(0.994934 0.0825509 -0.0573744)
(0.994934 0.0942259 -0.0350423)
(0.994934 0.0999802 -0.0105083)
(0.994934 0.0994525 0.0146859)
(0.994934 0.0926758 0.0389573)
(0.994934 0.0800759 0.0607809)
(0.994934 0.0624446 0.0787855)
(0.994934 0.0408896 0.0918396)
(0.994934 0.0167654 0.0991231)
(0.994934 -0.00841221 0.100178)
(0.994934 -0.0330613 0.0949391)
(0.994934 -0.055633 0.0837344)
(0.994934 -0.0747091 0.0672683)
(0.994934 -0.0890909 0.0465756)
(0.994934 -0.0978748 0.0229563)
(0.994934 -0.100509 -0.00210536)
(0.994934 -0.0968277 -0.0270348)
(0.994934 -0.0870624 -0.0502655)
(0.994934 -0.0718266 -0.0703378)
(0.994934 -0.0520778 -0.0859906)
(0.994934 -0.0290566 -0.0962403)
(0.994934 -0.0042098 -0.100443)
(0.994934 0.0209016 -0.0983341)
(0.994934 0.0446996 -0.0900468)
(0.994934 0.065689 -0.0761014)
(0.994934 0.0825509 -0.0573744)
(0.994934 0.0942259 -0.0350423)
(0.994934 0.0999802 -0.0105083)
(0.994934 0.0994525 0.0146859)
(0.994934 0.0926758 0.0389573)
(0.994934 0.0800759 0.0607809)
(0.994934 0.0624446 0.0787855)
(0.994934 0.0408896 0.0918396)
(0.994934 0.0167654 0.0991231)
(0.994934 -0.00841221 0.100178)
(0.994934 -0.0330613 0.0949391)
(0.994934 -0.055633 0.0837344)
(0.994934 -0.0747091 0.0672683)
(0.994934 -0.0890909 0.0465756)
(0.994934 -0.0978748 0.0229563)
(0.994934 -0.100509 -0.00210536)
(0.994934 -0.0968277 -0.0270348)
(0.994934 -0.0870624 -0.0502655)
(0.994934 -0.0718266 -0.0703378)
(0.994934 -0.0520778 -0.0859906)
(0.994934 -0.0290566 -0.0962403)
(0.994934 -0.0042098 -0.100443)
(0.994934 0.0209016 -0.0983341)
(0.994934 0.0446996 -0.0900468)
(0.994934 0.065689 -0.0761014)
(0.994934 0.0825509 -0.0573744)
(0.994934 0.0942259 -0.0350423)
(0.994934 0.0999802 -0.0105083)
(0.994934 0.0994525 0.0146859)
(0.994934 0.0926758 0.0389573)
(0.994934 0.0800759 0.0607809)
(0.994934 0.0624446 0.0787855)
(0.994934 0.0408896 0.0918396)
(0.994934 0.0167654 0.0991231)
(0.994934 -0.00841221 0.100178)
(0.994934 -0.0330613 0.0949391)
(0.994934 -0.055633 0.0837344)
(0.994934 -0.0747091 0.0672683)
(0.994934 -0.0890909 0.0465756)
(0.994934 -0.0978748 0.0229563)
(0.994934 -0.100509 -0.00210536)
(0.994934 -0.0968277 -0.0270348)
(0.994934 -0.0870624 -0.0502655)
(0.994934 -0.0718266 -0.0703378)
(0.994934 -0.0520778 -0.0859906)
(0.994934 -0.0290566 -0.0962403)
(0.994934 -0.0042098 -0.100443)
(0.994934 0.0209016 -0.0983341)
(0.994934 0.0446996 -0.0900468)
(0.994934 0.065689 -0.0761014)
(0.994934 0.0825509 -0.0573744)
(0.994934 0.0942259 -0.0350423)
(0.994934 0.0999802 -0.0105083)
(0.994934 0.0994525 0.0146859)
(0.994934 0.0926758 0.0389573)
(0.994934 0.0800759 0.0607809)
(0.994934 0.0624446 0.0787855)
(0.994934 0.0408896 0.0918396)
(0.994934 0.0167654 0.0991231)
(0.994934 -0.00841221 0.100178)
(0.994934 -0.0330613 0.0949391)
(0.994934 -0.055633 0.0837344)
(0.994934 -0.0747091 0.0672683)
(0.994934 -0.0890909 0.0465756)
(0.994934 -0.0978748 0.0229563)
(0.994934 -0.100509 -0.00210536)
(0.994934 -0.0968277 -0.0270348)
(0.994934 0.025001 -0.0973726)
(0.994934 0.0484312 -0.088096)
(0.994934 0.0688182 -0.0732839)
(0.994934 0.0848811 -0.0538672)
(0.994934 0.0956106 -0.0310658)
(0.994934 0.100333 -0.00631239)
(0.994934 0.0987503 0.0188376)
(0.994934 0.0909631 0.042804)
(0.994934 0.0774604 0.0640808)
(0.994934 0.0590906 0.0813313)
(0.994934 0.0370079 0.0934713)
(0.994934 0.0125999 0.0997382)
(0.994934 -0.0125999 0.0997382)
(0.994934 -0.0370079 0.0934713)
(0.994934 -0.0590906 0.0813313)
(0.994934 -0.0774604 0.0640808)
(0.994934 -0.0909631 0.042804)
(0.994934 -0.0987503 0.0188376)
(0.994934 -0.100333 -0.00631239)
(0.994934 -0.0956106 -0.0310658)
(0.994934 -0.0848811 -0.0538672)
(0.994934 -0.0688182 -0.0732839)
(0.994934 -0.0484312 -0.088096)
(0.994934 -0.025001 -0.0973726)
(0.994934 -3.94092e-16 -0.100531)
(0.994934 0.025001 -0.0973726)
(0.994934 0.0484312 -0.088096)
(0.994934 0.0688182 -0.0732839)
(0.994934 0.0848811 -0.0538672)
(0.994934 0.0956106 -0.0310658)
(0.994934 0.100333 -0.00631239)
(0.994934 0.0987503 0.0188376)
(0.994934 0.0909631 0.042804)
(0.994934 0.0774604 0.0640808)
(0.994934 0.0590906 0.0813313)
(0.994934 0.0370079 0.0934713)
(0.994934 0.0125999 0.0997382)
(0.994934 -0.0125999 0.0997382)
(0.994934 -0.0370079 0.0934713)
(0.994934 -0.0590906 0.0813313)
(0.994934 -0.0774604 0.0640808)
(0.994934 -0.0909631 0.042804)
(0.994934 -0.0987503 0.0188376)
(0.994934 -0.100333 -0.00631239)
(0.994934 -0.0956106 -0.0310658)
(0.994934 -0.0848811 -0.0538672)
(0.994934 -0.0688182 -0.0732839)
(0.994934 -0.0484312 -0.088096)
(0.994934 -0.025001 -0.0973726)
(0.994934 -5.97294e-16 -0.100531)
(0.994934 0.025001 -0.0973726)
(0.994934 0.0484312 -0.088096)
(0.994934 0.0688182 -0.0732839)
(0.994934 0.0848811 -0.0538672)
(0.994934 0.0956106 -0.0310658)
(0.994934 0.100333 -0.00631239)
(0.994934 0.0987503 0.0188376)
(0.994934 0.0909631 0.042804)
(0.994934 0.0774604 0.0640808)
(0.994934 0.0590906 0.0813313)
(0.994934 0.0370079 0.0934713)
(0.994934 0.0125999 0.0997382)
(0.994934 -0.0125999 0.0997382)
(0.994934 -0.0370079 0.0934713)
(0.994934 -0.0590906 0.0813313)
(0.994934 -0.0774604 0.0640808)
(0.994934 -0.0909631 0.042804)
(0.994934 -0.0987503 0.0188376)
(0.994934 -0.100333 -0.00631239)
(0.994934 -0.0956106 -0.0310658)
(0.994934 -0.0848811 -0.0538672)
(0.994934 -0.0688182 -0.0732839)
(0.994934 -0.0484312 -0.088096)
(0.994934 -0.025001 -0.0973726)
(0.994934 -4.43338e-16 -0.100531)
(0.994934 0.025001 -0.0973726)
(0.994934 0.0484312 -0.088096)
(0.994934 0.0688182 -0.0732839)
(0.994934 0.0848811 -0.0538672)
(0.994934 0.0956106 -0.0310658)
(0.994934 0.100333 -0.00631239)
(0.994934 0.0987503 0.0188376)
(0.994934 0.0909631 0.042804)
(0.994934 0.0774604 0.0640808)
(0.994934 0.0590906 0.0813313)
(0.994934 0.0370079 0.0934713)
(0.994934 0.0125999 0.0997382)
(0.994934 -0.0125999 0.0997382)
(0.994934 -0.0370079 0.0934713)
(0.994934 -0.0590906 0.0813313)
(0.994934 -0.0774604 0.0640808)
(0.994934 -0.0909631 0.042804)
(0.994934 -0.0987503 0.0188376)
(0.994934 -0.100333 -0.00631239)
(0.994934 -0.0956106 -0.0310658)
(0.994934 -0.0848811 -0.0538672)
(0.994934 -0.0688182 -0.0732839)
(0.994934 -0.0484312 -0.088096)
(0.994934 -0.025001 -0.0973726)
(0.994934 0.0968277 -0.0270348)
(0.994934 0.100509 -0.00210536)
(0.994934 0.0978748 0.0229563)
(0.994934 0.0890909 0.0465756)
(0.994934 0.0747091 0.0672683)
(0.994934 0.055633 0.0837344)
(0.994934 0.0330613 0.0949391)
(0.994934 0.00841221 0.100178)
(0.994934 -0.0167654 0.0991231)
(0.994934 -0.0408896 0.0918396)
(0.994934 -0.0624446 0.0787855)
(0.994934 -0.0800759 0.0607809)
(0.994934 -0.0926758 0.0389573)
(0.994934 -0.0994525 0.0146859)
(0.994934 -0.0999802 -0.0105083)
(0.994934 -0.0942259 -0.0350423)
(0.994934 -0.0825509 -0.0573744)
(0.994934 -0.065689 -0.0761014)
(0.994934 -0.0446996 -0.0900468)
(0.994934 -0.0209016 -0.0983341)
(0.994934 0.0042098 -0.100443)
(0.994934 0.0290566 -0.0962403)
(0.994934 0.0520778 -0.0859906)
(0.994934 0.0718266 -0.0703378)
(0.994934 0.0870624 -0.0502655)
(0.994934 0.0968277 -0.0270348)
(0.994934 0.100509 -0.00210536)
(0.994934 0.0978748 0.0229563)
(0.994934 0.0890909 0.0465756)
(0.994934 0.0747091 0.0672683)
(0.994934 0.055633 0.0837344)
(0.994934 0.0330613 0.0949391)
(0.994934 0.00841221 0.100178)
(0.994934 -0.0167654 0.0991231)
(0.994934 -0.0408896 0.0918396)
(0.994934 -0.0624446 0.0787855)
(0.994934 -0.0800759 0.0607809)
(0.994934 -0.0926758 0.0389573)
(0.994934 -0.0994525 0.0146859)
(0.994934 -0.0999802 -0.0105083)
(0.994934 -0.0942259 -0.0350423)
(0.994934 -0.0825509 -0.0573744)
(0.994934 -0.065689 -0.0761014)
(0.994934 -0.0446996 -0.0900468)
(0.994934 -0.0209016 -0.0983341)
(0.994934 0.0042098 -0.100443)
(0.994934 0.0290566 -0.0962403)
(0.994934 0.0520778 -0.0859906)
(0.994934 0.0718266 -0.0703378)
(0.994934 0.0870624 -0.0502655)
(0.994934 0.0968277 -0.0270348)
(0.994934 0.100509 -0.00210536)
(0.994934 0.0978748 0.0229563)
(0.994934 0.0890909 0.0465756)
(0.994934 0.0747091 0.0672683)
(0.994934 0.055633 0.0837344)
(0.994934 0.0330613 0.0949391)
(0.994934 0.00841221 0.100178)
(0.994934 -0.0167654 0.0991231)
(0.994934 -0.0408896 0.0918396)
(0.994934 -0.0624446 0.0787855)
(0.994934 -0.0800759 0.0607809)
(0.994934 -0.0926758 0.0389573)
(0.994934 -0.0994525 0.0146859)
(0.994934 -0.0999802 -0.0105083)
(0.994934 -0.0942259 -0.0350423)
(0.994934 -0.0825509 -0.0573744)
(0.994934 -0.065689 -0.0761014)
(0.994934 -0.0446996 -0.0900468)
(0.994934 -0.0209016 -0.0983341)
(0.994934 0.0042098 -0.100443)
(0.994934 0.0290566 -0.0962403)
(0.994934 0.0520778 -0.0859906)
(0.994934 0.0718266 -0.0703378)
(0.994934 0.0870624 -0.0502655)
(0.994934 0.0968277 -0.0270348)
(0.994934 0.100509 -0.00210536)
(0.994934 0.0978748 0.0229563)
(0.994934 0.0890909 0.0465756)
(0.994934 0.0747091 0.0672683)
(0.994934 0.055633 0.0837344)
(0.994934 0.0330613 0.0949391)
(0.994934 0.00841221 0.100178)
(0.994934 -0.0167654 0.0991231)
(0.994934 -0.0408896 0.0918396)
(0.994934 -0.0624446 0.0787855)
(0.994934 -0.0800759 0.0607809)
(0.994934 -0.0926758 0.0389573)
(0.994934 -0.0994525 0.0146859)
(0.994934 -0.0999802 -0.0105083)
(0.994934 -0.0942259 -0.0350423)
(0.994934 -0.0825509 -0.0573744)
(0.994934 -0.065689 -0.0761014)
(0.994934 -0.0446996 -0.0900468)
(0.994934 -0.0209016 -0.0983341)
(0.994934 0.0042098 -0.100443)
(0.994934 0.0290566 -0.0962403)
(0.994934 0.0520778 -0.0859906)
(0.994934 0.0718266 -0.0703378)
(0.994934 0.0718266 0.0703378)
(0.994934 0.0520778 0.0859906)
(0.994934 0.0290566 0.0962403)
(0.994934 0.0042098 0.100443)
(0.994934 -0.0209016 0.0983341)
(0.994934 -0.0446996 0.0900468)
(0.994934 -0.065689 0.0761014)
(0.994934 -0.0825509 0.0573744)
(0.994934 -0.0942259 0.0350423)
(0.994934 -0.0999802 0.0105083)
(0.994934 -0.0994525 -0.0146859)
(0.994934 -0.0926758 -0.0389573)
(0.994934 -0.0800759 -0.0607809)
(0.994934 -0.0624446 -0.0787855)
(0.994934 -0.0408896 -0.0918396)
(0.994934 -0.0167654 -0.0991231)
(0.994934 0.00841221 -0.100178)
(0.994934 0.0330613 -0.0949391)
(0.994934 0.055633 -0.0837344)
(0.994934 0.0747091 -0.0672683)
(0.994934 0.0890909 -0.0465756)
(0.994934 0.0978748 -0.0229563)
(0.994934 0.100509 0.00210536)
(0.994934 0.0968277 0.0270348)
(0.994934 0.0870624 0.0502655)
(0.994934 0.0718266 0.0703378)
(0.994934 0.0520778 0.0859906)
(0.994934 0.0290566 0.0962403)
(0.994934 0.0042098 0.100443)
(0.994934 -0.0209016 0.0983341)
(0.994934 -0.0446996 0.0900468)
(0.994934 -0.065689 0.0761014)
(0.994934 -0.0825509 0.0573744)
(0.994934 -0.0942259 0.0350423)
(0.994934 -0.0999802 0.0105083)
(0.994934 -0.0994525 -0.0146859)
(0.994934 -0.0926758 -0.0389573)
(0.994934 -0.0800759 -0.0607809)
(0.994934 -0.0624446 -0.0787855)
(0.994934 -0.0408896 -0.0918396)
(0.994934 -0.0167654 -0.0991231)
(0.994934 0.00841221 -0.100178)
(0.994934 0.0330613 -0.0949391)
(0.994934 0.055633 -0.0837344)
(0.994934 0.0747091 -0.0672683)
(0.994934 0.0890909 -0.0465756)
(0.994934 0.0978748 -0.0229563)
(0.994934 0.100509 0.00210536)
(0.994934 0.0968277 0.0270348)
(0.994934 0.0870624 0.0502655)
(0.994934 0.0718266 0.0703378)
(0.994934 0.0520778 0.0859906)
(0.994934 0.0290566 0.0962403)
(0.994934 0.0042098 0.100443)
(0.994934 -0.0209016 0.0983341)
(0.994934 -0.0446996 0.0900468)
(0.994934 -0.065689 0.0761014)
(0.994934 -0.0825509 0.0573744)
(0.994934 -0.0942259 0.0350423)
(0.994934 -0.0999802 0.0105083)
(0.994934 -0.0994525 -0.0146859)
(0.994934 -0.0926758 -0.0389573)
(0.994934 -0.0800759 -0.0607809)
(0.994934 -0.0624446 -0.0787855)
(0.994934 -0.0408896 -0.0918396)
(0.994934 -0.0167654 -0.0991231)
(0.994934 0.00841221 -0.100178)
(0.994934 0.0330613 -0.0949391)
(0.994934 0.055633 -0.0837344)
(0.994934 0.0747091 -0.0672683)
(0.994934 0.0890909 -0.0465756)
(0.994934 0.0978748 -0.0229563)
(0.994934 0.100509 0.00210536)
(0.994934 0.0968277 0.0270348)
(0.994934 0.0870624 0.0502655)
(0.994934 0.0718266 0.0703378)
(0.994934 0.0520778 0.0859906)
(0.994934 0.0290566 0.0962403)
(0.994934 0.0042098 0.100443)
(0.994934 -0.0209016 0.0983341)
(0.994934 -0.0446996 0.0900468)
(0.994934 -0.065689 0.0761014)
(0.994934 -0.0825509 0.0573744)
(0.994934 -0.0942259 0.0350423)
(0.994934 -0.0999802 0.0105083)
(0.994934 -0.0994525 -0.0146859)
(0.994934 -0.0926758 -0.0389573)
(0.994934 -0.0800759 -0.0607809)
(0.994934 -0.0624446 -0.0787855)
(0.994934 -0.0408896 -0.0918396)
(0.994934 -0.0167654 -0.0991231)
(0.994934 0.00841221 -0.100178)
(0.994934 0.0330613 -0.0949391)
(0.994934 0.055633 -0.0837344)
(0.994934 0.0747091 -0.0672683)
(0.994934 0.0890909 -0.0465756)
(0.994934 0.0978748 -0.0229563)
(0.994934 0.100509 0.00210536)
(0.994934 0.0968277 0.0270348)
)
;

boundaryField
{
    left
    {
        type            calculated;
        value           nonuniform List<vector> 7((1 0 0) (0.994934 3.17163e-36 0.100531) (0.994934 -0.0870624 0.0502655) (0.994934 -0.0870624 -0.0502655) (0.994934 -1.23115e-17 -0.100531) (0.994934 0.0870624 -0.0502655) (0.994934 0.0870624 0.0502655));
    }
    right
    {
        type            calculated;
        value           nonuniform List<vector> 7((1 0 0) (0.994934 2.24144e-15 0.100531) (0.994934 -0.0870624 0.0502655) (0.994934 -0.0870624 -0.0502655) (0.994934 -1.53943e-15 -0.100531) (0.994934 0.0870624 -0.0502655) (0.994934 0.0870624 0.0502655));
    }
    beam
    {
        type            empty;
    }
}


// ************************************************************************* //
