# Time	Qx	Qy	Qz	Mx	My	Mz	Wx	Wy	Wz
0	0	0	0	0	0	0	0	0	0
0.01	-2.82844	-1.62703	29.822	-5.61709e-19	-5.61687e-19	-2.99217e-20	-0.203872	-0.144354	5.59728
0.02	-11.2367	-6.4557	58.5838	-1.41983e-19	-6.34521e-21	1.16549e-19	-0.81132	-0.574536	11.131
0.03	-24.997	-14.3313	85.2629	-2.62109e-20	4.7035e-20	-1.1551e-23	-1.81002	-1.28204	16.5394
0.04	-43.7422	-25.0041	108.91	3.49706e-21	1.54183e-20	4.19739e-22	-3.18001	-2.25308	21.7648
0.05	-66.9818	-38.1413	128.681	2.3342e-21	2.57477e-20	4.91632e-23	-4.89455	-3.46922	26.7545
0.06	-94.1245	-53.3418	143.858	5.24742e-20	6.33061e-20	-1.68187e-21	-6.92115	-4.90807	31.4627
0.07	-124.503	-70.1536	153.875	-2.14648e-20	2.53437e-19	2.84444e-22	-9.22289	-6.5442	35.8512
0.08	-157.402	-88.0922	158.317	-4.66234e-20	3.10702e-19	-3.01968e-22	-11.7597	-8.35004	39.8898
0.09	-192.083	-106.659	156.933	-2.06544e-20	7.18691e-20	-7.38229e-21	-14.4898	-10.2969	43.5572
0.1	-227.811	-125.36	149.624	-3.10256e-19	-1.3741e-19	5.84695e-21	-17.3708	-12.3556	46.8397
0.11	-263.877	-143.718	136.433	7.21956e-20	-9.52986e-21	-4.48385e-21	-20.3611	-14.4978	49.7321
0.12	-299.619	-161.287	117.536	5.64755e-19	-6.76997e-19	-1.03133e-20	-23.4207	-16.6962	52.2359
0.13	-334.433	-177.666	93.215	-3.08955e-19	6.10748e-19	2.95535e-21	-26.5124	-18.9251	54.3591
0.14	-367.788	-192.5	63.8436	-6.47677e-20	-2.83447e-19	-1.4825e-21	-29.6017	-21.1614	56.1149
0.15	-399.229	-205.487	29.8637	6.70066e-20	-1.24703e-19	-1.01857e-20	-32.658	-23.384	57.521
0.16	-428.382	-216.381	-8.23406	1.76026e-19	-5.41926e-19	-8.6021e-21	-35.6544	-25.5749	58.5985
0.17	-454.957	-224.991	-49.9297	4.09583e-19	-6.87378e-19	-1.88624e-20	-38.5677	-27.7184	59.3707
0.18	-478.739	-231.177	-94.6906	-3.01437e-22	3.8424e-20	-8.03394e-21	-41.3789	-29.8017	59.8626
0.19	-499.586	-234.848	-141.986	3.30131e-19	-4.08915e-19	-3.31303e-21	-44.0724	-31.8144	60.1
0.2	-517.424	-235.959	-191.301	-3.26923e-19	-2.33981e-20	5.05247e-22	-46.636	-33.7485	60.1088
0.21	-532.238	-234.5	-242.142	1.38754e-19	-4.91813e-19	9.23013e-24	-49.0609	-35.598	59.9145
0.22	-544.064	-230.498	-294.05	8.17841e-20	3.87941e-20	6.42598e-21	-51.3409	-37.359	59.5418
0.23	-552.982	-224.007	-346.6	5.62559e-20	2.2746e-20	-1.13407e-20	-53.4724	-39.0292	59.0141
0.24	-559.11	-215.104	-399.407	1.85838e-20	-1.80784e-19	5.49134e-21	-55.454	-40.6078	58.3535
0.25	-562.593	-203.883	-452.129	7.3647e-20	-6.2092e-20	8.36168e-22	-57.2859	-42.095	57.5805
0.26	-563.598	-190.453	-504.465	9.39676e-20	-1.39519e-20	4.50804e-21	-58.9701	-43.4923	56.7139
0.27	-562.31	-174.931	-556.153	-7.4961e-22	1.54512e-20	5.7505e-21	-60.5096	-44.8017	55.7709
0.28	-558.926	-157.441	-606.972	6.7568e-20	-2.08335e-20	4.1003e-20	-61.9084	-46.0262	54.767
0.29	-553.646	-138.109	-656.736	7.2449e-20	-1.33389e-20	8.98352e-21	-63.1715	-47.1688	53.716
0.3	-546.677	-117.062	-705.295	7.94308e-21	7.55473e-21	-1.72599e-21	-64.3041	-48.2333	52.6301
0.31	-538.224	-94.4271	-752.528	1.24287e-20	2.48832e-20	6.4106e-21	-65.312	-49.2233	51.52
0.32	-528.489	-70.3253	-798.345	4.6295e-21	1.73083e-20	-1.08245e-20	-66.2011	-50.1429	50.3952
0.33	-517.669	-44.8752	-842.677	5.65327e-22	-6.36188e-21	1.62683e-20	-66.9776	-50.996	49.2637
0.34	-505.957	-18.1897	-885.481	-1.14241e-22	2.39069e-20	2.37671e-20	-67.6476	-51.7865	48.1325
0.35	-493.535	9.62417	-926.731	1.55434e-21	2.03304e-21	-1.5682e-20	-68.217	-52.5184	47.0074
0.36	-480.58	38.4657	-966.418	-1.26194e-21	-8.31966e-22	9.36204e-21	-68.6918	-53.1954	45.8932
0.37	-467.259	68.2407	-1004.55	-1.11653e-20	2.224e-20	9.47287e-21	-69.0778	-53.821	44.7941
0.38	-453.729	98.8612	-1041.13	2.1525e-20	-4.98209e-21	2.35798e-22	-69.3804	-54.3988	43.7133
0.39	-440.139	130.246	-1076.2	-7.20723e-21	-3.21936e-20	1.60318e-22	-69.605	-54.932	42.6533
0.4	-426.63	162.319	-1109.79	-2.59966e-20	2.11343e-20	-5.88109e-22	-69.7567	-55.4237	41.6163
0.41	-413.332	195.012	-1141.94	5.02735e-21	1.52415e-20	-8.64064e-21	-69.8401	-55.8767	40.6037
0.42	-400.369	228.261	-1172.69	7.34082e-21	1.9042e-20	-7.83794e-21	-69.8599	-56.2937	39.6166
0.43	-387.855	262.007	-1202.09	-1.24879e-20	1.21386e-21	-6.45591e-22	-69.8202	-56.6771	38.6555
0.44	-375.898	296.197	-1230.19	-6.94987e-22	7.13581e-21	5.69838e-22	-69.7252	-57.0292	37.7209
0.45	-364.598	330.78	-1257.04	-5.1921e-20	-2.19429e-21	3.42562e-21	-69.5785	-57.3521	36.8126
0.46	-354.047	365.711	-1282.69	3.64333e-20	-1.0777e-20	4.35842e-20	-69.3836	-57.6477	35.9307
0.47	-344.332	400.949	-1307.2	-4.02138e-20	4.99315e-21	-2.31909e-20	-69.1438	-57.9177	35.0745
0.48	-335.535	436.454	-1330.61	9.27331e-21	2.20654e-21	9.26034e-21	-68.8622	-58.1637	34.2436
0.49	-327.732	472.191	-1352.97	1.24192e-20	-5.55997e-22	1.4734e-20	-68.5417	-58.3869	33.4371
0.5	-320.991	508.125	-1374.33	-2.10104e-20	-8.84571e-22	1.66176e-20	-68.1848	-58.5888	32.6544
0.51	-315.38	544.224	-1394.72	-1.03435e-20	3.32141e-23	-3.778e-20	-67.7941	-58.7704	31.8944
0.52	-310.959	580.458	-1414.2	-4.26176e-20	1.27412e-21	-1.11227e-20	-67.3718	-58.9327	31.1561
0.53	-307.786	616.798	-1432.8	4.82084e-20	3.29761e-22	2.42849e-20	-66.9202	-59.0765	30.4385
0.54	-305.914	653.216	-1450.56	4.82002e-20	-5.10872e-22	6.22674e-21	-66.4413	-59.2026	29.7405
0.55	-305.393	689.685	-1467.5	3.95507e-20	1.99258e-21	9.09314e-21	-65.9368	-59.3117	29.0609
0.56	-306.27	726.177	-1483.67	7.47427e-21	2.38632e-21	1.64581e-20	-65.4087	-59.4043	28.3987
0.57	-308.588	762.666	-1499.07	1.62829e-20	-7.26697e-22	-1.21932e-20	-64.8584	-59.4809	27.7526
0.58	-312.388	799.125	-1513.74	-5.21866e-20	-2.7616e-21	1.53921e-20	-64.2877	-59.5419	27.1215
0.59	-317.708	835.526	-1527.7	3.36713e-20	2.57003e-21	-1.82345e-20	-63.698	-59.5876	26.5042
0.6	-324.583	871.843	-1540.95	-8.19706e-21	-7.54165e-22	-1.00619e-20	-63.0907	-59.6182	25.8997
0.61	-333.046	908.047	-1553.52	9.37084e-21	2.50055e-21	7.50775e-21	-62.467	-59.634	25.3068
0.62	-343.126	944.109	-1565.41	-2.54063e-20	-2.60725e-22	7.49264e-21	-61.8283	-59.6351	24.7244
0.63	-354.851	980	-1576.64	6.66571e-21	-1.94234e-22	5.05334e-21	-61.1757	-59.6216	24.1515
0.64	-368.247	1015.69	-1587.19	-5.09371e-21	-2.29189e-22	-2.01356e-21	-60.5104	-59.5935	23.5869
0.65	-383.336	1051.14	-1597.08	-6.73343e-22	-9.05981e-23	5.56351e-22	-59.8335	-59.551	23.0297
0.66	-400.138	1086.33	-1606.29	-1.85261e-20	1.43392e-21	9.53804e-22	-59.1461	-59.4938	22.4789
0.67	-418.672	1121.22	-1614.83	1.25232e-20	3.59763e-21	3.02204e-20	-58.4493	-59.4221	21.9335
0.68	-438.953	1155.77	-1622.69	1.0935e-20	-3.12673e-21	-1.50146e-20	-57.7439	-59.3358	21.3926
0.69	-460.993	1189.95	-1629.85	-5.46022e-20	-8.47046e-21	-4.88421e-20	-57.0311	-59.2347	20.8553
0.7	-484.804	1223.72	-1636.3	2.752e-20	1.66478e-21	-3.47746e-20	-56.3117	-59.1189	20.3208
0.71	-510.393	1257.04	-1642.02	-4.39431e-20	-4.90539e-21	-7.82796e-21	-55.5868	-58.988	19.7883
0.72	-537.764	1289.87	-1647.01	-1.15754e-19	-1.07129e-20	5.19637e-21	-54.8573	-58.8421	19.257
0.73	-566.921	1322.17	-1651.23	6.86743e-20	7.95767e-21	2.02313e-20	-54.124	-58.6811	18.7261
0.74	-597.863	1353.9	-1654.67	1.41637e-19	1.24118e-20	-5.00642e-21	-53.388	-58.5047	18.1949
0.75	-630.585	1385	-1657.29	-2.43637e-20	-3.51643e-21	-5.37864e-21	-52.6501	-58.3129	17.6629
0.76	-665.083	1415.45	-1659.09	2.55712e-19	2.11747e-20	1.24391e-19	-51.9113	-58.1055	17.1294
0.77	-701.346	1445.18	-1660.02	-2.9945e-19	-1.92978e-21	-2.3107e-20	-51.1724	-57.8824	16.5937
0.78	-739.361	1474.16	-1660.06	1.64962e-19	1.36981e-20	9.78926e-20	-50.4343	-57.6436	16.0554
0.79	-779.113	1502.33	-1659.18	4.7784e-19	5.25289e-21	1.78252e-20	-49.6979	-57.3889	15.514
0.8	-820.583	1529.65	-1657.35	-7.99639e-20	-2.20051e-21	7.382e-20	-48.9642	-57.1181	14.9689
0.81	-863.747	1556.06	-1654.54	8.17244e-20	-6.55002e-21	-3.14142e-20	-48.234	-56.8314	14.4198
0.82	-908.581	1581.53	-1650.71	-7.4766e-20	-4.38355e-20	-1.37723e-19	-47.5082	-56.5285	13.8664
0.83	-955.054	1605.99	-1645.83	2.88662e-20	5.20918e-20	8.78341e-20	-46.7878	-56.2096	13.3081
0.84	-1003.13	1629.4	-1639.88	-5.86065e-19	-1.18796e-19	-1.15006e-19	-46.0735	-55.8744	12.7448
0.85	-1052.78	1651.7	-1632.8	3.90568e-19	3.07601e-20	7.21639e-20	-45.3663	-55.5231	12.1762
0.86	-1103.97	1672.85	-1624.58	4.16929e-19	4.32134e-20	1.89066e-19	-44.667	-55.1557	11.6021
0.87	-1156.63	1692.79	-1615.17	5.97663e-19	1.00947e-20	-3.13164e-20	-43.9765	-54.7722	11.0222
0.88	-1210.74	1711.48	-1604.54	-1.25044e-18	-1.03434e-19	-1.80888e-19	-43.2957	-54.3728	10.4364
0.89	-1266.24	1728.86	-1592.67	-2.17196e-19	7.03005e-20	-1.47518e-19	-42.6255	-53.9574	9.84465
0.9	-1323.07	1744.89	-1579.51	-1.93186e-19	3.46991e-20	-1.59787e-19	-41.9667	-53.5263	9.24684
0.91	-1381.18	1759.52	-1565.03	-7.40927e-19	-9.52705e-20	1.05624e-19	-41.32	-53.0796	8.64294
0.92	-1440.51	1772.69	-1549.22	-1.39385e-18	-1.40627e-19	-1.37038e-19	-40.6865	-52.6174	8.03294
0.93	-1501	1784.38	-1532.03	-2.12926e-19	-1.34196e-19	1.80044e-19	-40.0668	-52.14	7.41688
0.94	-1562.56	1794.53	-1513.43	2.13631e-19	-1.47515e-19	-4.59262e-20	-39.4617	-51.6477	6.79484
0.95	-1625.14	1803.09	-1493.41	-5.10398e-22	-4.75619e-23	-3.8529e-23	-38.8721	-51.1406	6.16693
0.96	-1688.67	1810.03	-1471.93	-3.45259e-22	-8.53001e-23	-1.49783e-22	-38.2987	-50.6192	5.53327
0.97	-1753.06	1815.31	-1448.98	6.15469e-22	-6.37341e-23	-4.18128e-24	-37.7422	-50.0836	4.89404
0.98	-1818.23	1818.89	-1424.52	-4.63445e-22	-8.66219e-23	-1.05347e-22	-37.2033	-49.5344	4.24944
0.99	-1884.11	1820.73	-1398.55	-4.79555e-22	-8.05496e-23	-9.91536e-23	-36.6828	-48.9717	3.59971
1	-1950.61	1820.81	-1371.04	-9.54121e-22	-5.18296e-23	1.30861e-23	-36.1812	-48.3961	2.94509
