/*--------------------------------*- C++ -*----------------------------------*\
| =========                 |                                                 |
| \\      /  F ield         | foam-extend: Open Source CFD                    |
|  \\    /   O peration     | Version:     4.1                                |
|   \\  /    A nd           | Web:         http://www.foam-extend.org         |
|    \\/     M anipulation  |                                                 |
\*---------------------------------------------------------------------------*/
FoamFile
{
    version     2.0;
    format      ascii;
    class       volVectorField;
    location    "0";
    object      refW;
}
// * * * * * * * * * * * * * * * * * * * * * * * * * * * * * * * * * * * * * //

dimensions      [0 1 0 0 0 0 0];

internalField   nonuniform List<vector> 
92
(
(-0.0303247 0.0307941 0)
(-0.0881314 0.0922656 0)
(-0.142161 0.153387 0)
(-0.192443 0.213927 0)
(-0.239019 0.273655 0)
(-0.281947 0.332345 0)
(-0.321297 0.389775 0)
(-0.357154 0.445726 0)
(-0.389616 0.499986 0)
(-0.418793 0.55235 0)
(-0.444808 0.602619 0)
(-0.467796 0.650602 0)
(-0.487903 0.696118 0)
(-0.505287 0.738993 0)
(-0.520116 0.779064 0)
(-0.532566 0.816181 0)
(-0.542826 0.850202 0)
(-0.551087 0.880997 0)
(-0.557554 0.90845 0)
(-0.562436 0.932459 0)
(-0.565948 0.952931 0)
(-0.56831 0.969788 0)
(-0.569746 0.982965 0)
(-0.570485 0.992415 0)
(-0.570757 0.9981 0)
(-0.570796 1 0)
(-0.570835 0.998106 0)
(-0.571107 0.992426 0)
(-0.571846 0.982982 0)
(-0.57328 0.969811 0)
(-0.57564 0.952959 0)
(-0.57915 0.932492 0)
(-0.58403 0.908488 0)
(-0.590494 0.881041 0)
(-0.598753 0.850251 0)
(-0.609009 0.816234 0)
(-0.621457 0.779121 0)
(-0.636282 0.739052 0)
(-0.653661 0.696184 0)
(-0.673763 0.650675 0)
(-0.696747 0.602694 0)
(-0.722759 0.552427 0)
(-0.751932 0.500064 0)
(-0.784387 0.445809 0)
(-0.820237 0.389863 0)
(-0.859583 0.332434 0)
(-0.902507 0.273743 0)
(-0.949079 0.214014 0)
(-0.999353 0.153479 0)
(-1.05337 0.0923608 0)
(-2.1107 1.05 -2.1107)
(0.97561 1.05 0.97561)
(0.926829 1.05 0.926829)
(0.878049 1.05 0.878049)
(0.829268 1.05 0.829268)
(0.780488 1.05 0.780488)
(0.731708 1.05 0.731708)
(0.682927 1.05 0.682927)
(0.634147 1.05 0.634147)
(0.585366 1.05 0.585366)
(0.536585 1.05 0.536585)
(0.487805 1.05 0.487805)
(0.439025 1.05 0.439025)
(0.390244 1.05 0.390244)
(0.341464 1.05 0.341464)
(0.292683 1.05 0.292683)
(0.243903 1.05 0.243903)
(0.195122 1.05 0.195122)
(0.146342 1.05 0.146342)
(0.097561 1.05 0.097561)
(0.0487805 1.05 0.0487805)
(-8.88178e-16 1.05 -8.87886e-16)
(-0.04878 1.05 -0.04878)
(-0.09756 1.05 -0.09756)
(-0.14634 1.05 -0.14634)
(-0.19512 1.05 -0.19512)
(-0.2439 1.05 -0.2439)
(-0.29268 1.05 -0.29268)
(-0.34146 1.05 -0.34146)
(-0.39024 1.05 -0.39024)
(-0.43902 1.05 -0.43902)
(-0.487805 1.05 -0.487805)
(-0.53659 1.05 -0.53659)
(-0.58537 1.05 -0.58537)
(-0.63415 1.05 -0.63415)
(-0.68293 1.05 -0.68293)
(-0.73171 1.05 -0.73171)
(-0.78049 1.05 -0.78049)
(-0.82927 1.05 -0.82927)
(-0.87805 1.05 -0.87805)
(0 0 0)
(-0.581762 0.919176 0)
)
;

boundaryField
{
    left_0
    {
        type            calculated;
        value           uniform (0 0 0);
    }
    left_1
    {
        type            calculated;
        value           uniform (1 1.05 1);
    }
    right_0
    {
        type            calculated;
        value           uniform (0 0 0);
    }
    right_1
    {
        type            calculated;
        value           uniform (-1 1.05 -1);
    }
    beam
    {
        type            empty;
    }
}


// ************************************************************************* //
