/*--------------------------------*- C++ -*----------------------------------*\
| =========                 |                                                 |
| \\      /  F ield         | foam-extend: Open Source CFD                    |
|  \\    /   O peration     | Version:     4.1                                |
|   \\  /    A nd           | Web:         http://www.foam-extend.org         |
|    \\/     M anipulation  |                                                 |
\*---------------------------------------------------------------------------*/
FoamFile
{
    version     2.0;
    format      ascii;
    class       surfaceVectorField;
    location    "0";
    object      refWf;
}
// * * * * * * * * * * * * * * * * * * * * * * * * * * * * * * * * * * * * * //

dimensions      [0 1 0 0 0 0 0];

internalField   nonuniform List<vector> 
90
(
(-0.0597014 0.0615591 0)
(-0.115617 0.122885 0)
(-0.167768 0.183744 0)
(-0.216191 0.243907 0)
(-0.260935 0.303144 0)
(-0.302064 0.361231 0)
(-0.339657 0.417949 0)
(-0.373803 0.47308 0)
(-0.404608 0.526418 0)
(-0.432188 0.577759 0)
(-0.456671 0.626908 0)
(-0.4782 0.673679 0)
(-0.496926 0.717896 0)
(-0.51301 0.759389 0)
(-0.526627 0.798001 0)
(-0.537958 0.833587 0)
(-0.547194 0.866012 0)
(-0.554532 0.895147 0)
(-0.56018 0.920891 0)
(-0.56435 0.943142 0)
(-0.567259 0.961816 0)
(-0.569129 0.97684 0)
(-0.570188 0.988158 0)
(-0.570665 0.99573 0)
(-0.570791 0.999524 0)
(-0.570801 0.999527 0)
(-0.570928 0.995738 0)
(-0.571404 0.988173 0)
(-0.572461 0.97686 0)
(-0.574331 0.961841 0)
(-0.577238 0.943173 0)
(-0.581405 0.920927 0)
(-0.587051 0.895188 0)
(-0.594386 0.866058 0)
(-0.603619 0.833638 0)
(-0.614947 0.798056 0)
(-0.628561 0.759447 0)
(-0.644642 0.717957 0)
(-0.663361 0.673751 0)
(-0.684886 0.626982 0)
(-0.709366 0.577834 0)
(-0.736942 0.526495 0)
(-0.767743 0.473159 0)
(-0.80188 0.418036 0)
(-0.839468 0.36132 0)
(-0.880593 0.303232 0)
(-0.925333 0.243994 0)
(-0.973752 0.183831 0)
(-1.02589 0.122981 0)
(-1.0818 0.0616535 0)
(0.951219 1.05 0.951219)
(0.902439 1.05 0.902439)
(0.853659 1.05 0.853659)
(0.804878 1.05 0.804878)
(0.756098 1.05 0.756098)
(0.707317 1.05 0.707317)
(0.658537 1.05 0.658537)
(0.609756 1.05 0.609756)
(0.560976 1.05 0.560976)
(0.512195 1.05 0.512195)
(0.463415 1.05 0.463415)
(0.414634 1.05 0.414634)
(0.365854 1.05 0.365854)
(0.317073 1.05 0.317073)
(0.268293 1.05 0.268293)
(0.219512 1.05 0.219512)
(0.170732 1.05 0.170732)
(0.121951 1.05 0.121951)
(0.073171 1.05 0.073171)
(0.02439 1.05 0.02439)
(-0.02439 1.05 -0.02439)
(-0.07317 1.05 -0.07317)
(-0.12195 1.05 -0.12195)
(-0.17073 1.05 -0.17073)
(-0.21951 1.05 -0.21951)
(-0.26829 1.05 -0.26829)
(-0.31707 1.05 -0.31707)
(-0.36585 1.05 -0.36585)
(-0.41463 1.05 -0.41463)
(-0.46341 1.05 -0.46341)
(-0.5122 1.05 -0.5122)
(-0.56098 1.05 -0.56098)
(-0.60976 1.05 -0.60976)
(-0.65854 1.05 -0.65854)
(-0.70732 1.05 -0.70732)
(-0.7561 1.05 -0.7561)
(-0.80488 1.05 -0.80488)
(-0.85366 1.05 -0.85366)
(-0.90244 1.05 -0.90244)
(-0.95122 1.05 -0.95122)
)
;

boundaryField
{
    left_0
    {
        type            calculated;
        value           uniform (3.13822e-36 -3.13822e-36 0);
    }
    left_1
    {
        type            calculated;
        value           uniform (1 1.05 1);
    }
    right_0
    {
        type            calculated;
        value           uniform (-1.1415 9.26536e-05 0);
    }
    right_1
    {
        type            calculated;
        value           uniform (-1 1.05 -1);
    }
    beam
    {
        type            empty;
    }
}


// ************************************************************************* //
