/*--------------------------------*- C++ -*----------------------------------*\
| =========                 |                                                 |
| \\      /  F ield         | OpenFOAM: The Open Source CFD Toolbox           |
|  \\    /   O peration     | Version:  2312                                  |
|   \\  /    A nd           | Website:  www.openfoam.com                      |
|    \\/     M anipulation  |                                                 |
\*---------------------------------------------------------------------------*/
FoamFile
{
    version     2.0;
    format      ascii;
    arch        "LSB;label=32;scalar=64";
    class       surfaceTensorField;
    location    "2";
    object      CMQTheta;
}
// * * * * * * * * * * * * * * * * * * * * * * * * * * * * * * * * * * * * * //

dimensions      [1 2 -2 0 0 0 0];

oriented        oriented;

internalField   nonuniform List<tensor> 
59
(
(-6.544e-09 1.2068e-20 -0.000157045 1.3628e-20 -3.76991 -5.69732e-25 -0.000157091 -5.04897e-25 -3.76991)
(-6.05239e-09 -6.2703e-21 -0.000151067 -7.08157e-21 -3.76991 4.2785e-25 -0.000151039 3.95295e-25 -3.76991)
(-5.6555e-09 4.64629e-21 -0.000146008 5.24659e-21 -3.76991 -3.42537e-25 -0.000146025 -3.19309e-25 -3.76991)
(-5.22837e-09 -1.9093e-21 -0.000140399 -2.15666e-21 -3.76991 4.09928e-26 -0.000140389 3.17762e-26 -3.76991)
(-4.8431e-09 1.59698e-21 -0.000135119 1.803e-21 -3.76991 1.65623e-26 -0.000135125 2.39461e-26 -3.76991)
(-4.45813e-09 -4.42515e-22 -0.000129643 -5.00217e-22 -3.76991 9.37269e-26 -0.000129639 9.17424e-26 -3.76991)
(-4.09738e-09 4.46762e-22 -0.000124284 5.04049e-22 -3.76991 -3.43234e-25 -0.000124286 -3.41349e-25 -3.76991)
(-3.7471e-09 -2.96638e-22 -0.000118855 -3.35477e-22 -3.76991 -6.29609e-26 -0.000118853 -6.41874e-26 -3.76991)
(-3.41518e-09 1.43908e-22 -0.000113467 1.62035e-22 -3.76991 -3.41474e-25 -0.000113468 -3.40929e-25 -3.76991)
(-3.09711e-09 -1.72668e-22 -0.000108055 -1.95477e-22 -3.76991 3.42662e-26 -0.000108055 3.36119e-26 -3.76991)
(-2.79546e-09 -1.42752e-22 -0.000102658 -1.61692e-22 -3.76991 -1.68334e-25 -0.000102658 -1.68851e-25 -3.76991)
(-2.50876e-09 2.03886e-21 -9.72514e-05 2.30202e-21 -3.76991 -1.26063e-24 -9.72512e-05 -1.25384e-24 -3.76991)
(-2.23786e-09 -5.63633e-21 -9.18505e-05 -6.36561e-21 -3.76991 4.10442e-25 -9.18506e-05 3.92674e-25 -3.76991)
(-1.98227e-09 5.02092e-21 -8.64463e-05 5.66968e-21 -3.76991 2.04699e-25 -8.64463e-05 2.19574e-25 -3.76991)
(-1.74226e-09 -4.47836e-21 -8.10441e-05 -5.05792e-21 -3.76991 -2.32318e-26 -8.10442e-05 -3.56898e-26 -3.76991)
(-1.51768e-09 1.01082e-21 -7.56408e-05 1.14105e-21 -3.76991 1.34683e-25 -7.56408e-05 1.37298e-25 -3.76991)
(-1.30862e-09 2.62434e-21 -7.02381e-05 2.9632e-21 -3.76991 -1.18991e-25 -7.02381e-05 -1.12677e-25 -3.76991)
(-1.11503e-09 6.73522e-22 -6.4835e-05 7.60132e-22 -3.76991 1.07246e-25 -6.4835e-05 1.08736e-25 -3.76991)
(-9.36942e-10 -4.15345e-21 -5.94322e-05 -4.69099e-21 -3.76991 1.94569e-26 -5.94322e-05 1.09831e-26 -3.76991)
(-7.7433e-10 3.63519e-20 -5.40292e-05 4.10519e-20 -3.76991 -5.93716e-25 -5.40292e-05 -5.26355e-25 -3.76991)
(-6.27208e-10 -7.75076e-20 -4.86263e-05 -8.75302e-20 -3.76991 1.06168e-24 -4.86263e-05 9.32407e-25 -3.76991)
(-4.95544e-10 1.12696e-19 -4.32209e-05 1.27267e-19 -3.7697 -1.68198e-24 -4.32209e-05 -1.51491e-24 -3.7697)
(-3.79434e-10 -1.74251e-19 -3.78211e-05 -1.96783e-19 -3.76991 1.90962e-24 -3.78211e-05 1.68357e-24 -3.76991)
(-2.78759e-10 2.80294e-19 -3.24175e-05 3.16537e-19 -3.76991 -2.7862e-24 -3.24175e-05 -2.47454e-24 -3.76991)
(-1.93591e-10 -4.59921e-19 -2.70152e-05 -5.19392e-19 -3.76991 3.71972e-24 -2.70152e-05 3.29355e-24 -3.76991)
(-1.23893e-10 7.58706e-19 -2.16117e-05 8.56811e-19 -3.76991 -5.04853e-24 -2.16117e-05 -4.48612e-24 -3.76991)
(-6.9695e-11 -1.26966e-18 -1.62094e-05 -1.43383e-18 -3.76991 6.14463e-24 -1.62094e-05 5.43874e-24 -3.76991)
(-3.09732e-11 2.13002e-18 -1.08058e-05 2.40545e-18 -3.76991 -6.91599e-24 -1.08058e-05 -6.12653e-24 -3.76991)
(-7.74505e-12 -3.56431e-18 -5.40353e-06 -4.0252e-18 -3.76991 5.94458e-24 -5.40353e-06 5.28398e-24 -3.76991)
(-6.25828e-25 -4.23468e-23 1.53602e-12 -4.82979e-23 -3.76991 1.16759e-25 1.53599e-12 1.16758e-25 -3.76991)
(-7.74156e-12 3.56535e-18 5.40231e-06 4.02637e-18 -3.76991 5.7638e-24 5.40231e-06 5.10316e-24 -3.76991)
(-3.09732e-11 -2.13296e-18 1.08058e-05 -2.40877e-18 -3.76991 -6.9151e-24 1.08058e-05 -6.12455e-24 -3.76991)
(-6.96845e-11 1.27669e-18 1.62082e-05 1.44177e-18 -3.76991 6.0741e-24 1.62082e-05 5.36436e-24 -3.76991)
(-1.23893e-10 -7.66392e-19 2.16117e-05 -8.65492e-19 -3.76991 -5.00084e-24 2.16117e-05 -4.43274e-24 -3.76991)
(-1.93574e-10 4.57115e-19 2.7014e-05 5.16222e-19 -3.76991 4.12265e-24 2.7014e-05 3.69911e-24 -3.76991)
(-2.78759e-10 -2.71708e-19 3.24175e-05 -3.06842e-19 -3.76991 -2.53641e-24 3.24175e-05 -2.23429e-24 -3.76991)
(-3.7941e-10 1.65198e-19 3.78199e-05 1.86558e-19 -3.76991 1.67031e-24 3.78199e-05 1.45602e-24 -3.76991)
(-4.95572e-10 -9.55744e-20 4.32234e-05 -1.07933e-19 -3.76991 -1.34248e-24 4.32234e-05 -1.20079e-24 -3.76991)
(-6.27193e-10 5.52914e-20 4.86257e-05 6.24404e-20 -3.76991 5.3093e-25 4.86257e-05 4.38721e-25 -3.76991)
(-7.7433e-10 -3.43769e-20 5.40292e-05 -3.88224e-20 -3.76991 -7.65953e-25 5.40292e-05 -7.02239e-25 -3.76991)
(-9.36922e-10 1.84124e-20 5.94316e-05 2.07928e-20 -3.76991 6.55289e-25 5.94316e-05 6.17761e-25 -3.76991)
(-1.11503e-09 -9.58853e-21 6.4835e-05 -1.08289e-20 -3.76991 -3.10431e-25 6.4835e-05 -2.89099e-25 -3.76991)
(-1.3086e-09 3.06111e-21 7.02375e-05 3.45646e-21 -3.76991 1.9932e-25 7.02375e-05 1.91955e-25 -3.76991)
(-1.51768e-09 -4.47169e-21 7.56408e-05 -5.05038e-21 -3.76991 -3.18311e-25 7.56408e-05 -3.06701e-25 -3.76991)
(-1.74223e-09 7.75119e-21 8.10435e-05 8.75299e-21 -3.76991 2.27482e-25 8.10436e-05 2.05944e-25 -3.76991)
(-1.98227e-09 -4.97956e-21 8.64464e-05 -5.62391e-21 -3.76991 -9.88714e-26 8.64463e-05 -8.40953e-26 -3.76991)
(-2.23783e-09 3.06688e-21 9.18499e-05 3.46298e-21 -3.76991 9.77212e-26 9.185e-05 8.80701e-26 -3.76991)
(-2.50876e-09 -1.86856e-21 9.72514e-05 -2.11064e-21 -3.76991 5.35391e-26 9.72512e-05 5.97822e-26 -3.76991)
(-2.79543e-09 1.32005e-21 0.000102657 1.49027e-21 -3.76991 -4.2532e-26 0.000102657 -4.71665e-26 -3.76991)
(-3.09711e-09 -7.89748e-22 0.000108055 -8.92335e-22 -3.76991 4.42603e-26 0.000108055 4.72026e-26 -3.76991)
(-3.41515e-09 7.6395e-22 0.000113467 8.62266e-22 -3.76991 -4.81098e-26 0.000113468 -5.10689e-26 -3.76991)
(-3.7471e-09 -5.04481e-22 0.000118855 -5.7018e-22 -3.76991 3.20012e-26 0.000118853 3.40729e-26 -3.76991)
(-4.09733e-09 4.9916e-22 0.000124283 5.63237e-22 -3.76991 5.93312e-26 0.000124285 5.72209e-26 -3.76991)
(-4.45813e-09 -1.72011e-22 0.000129643 -1.9472e-22 -3.76991 6.2051e-26 0.000129639 6.28316e-26 -3.76991)
(-4.84305e-09 -8.79565e-22 0.000135119 -9.93764e-22 -3.76991 1.48546e-25 0.000135125 1.52635e-25 -3.76991)
(-5.22837e-09 1.39492e-21 0.000140399 1.57482e-21 -3.76991 -8.76359e-25 0.000140389 -8.83065e-25 -3.76991)
(-5.65545e-09 -5.08764e-21 0.000146007 -5.74597e-21 -3.76991 -2.41465e-25 0.000146024 -2.15994e-25 -3.76991)
(-6.05239e-09 6.6462e-21 0.000151067 7.50513e-21 -3.76991 2.57948e-25 0.000151039 2.2348e-25 -3.76991)
(-6.54396e-09 -1.2035e-20 0.000157044 -1.35916e-20 -3.76991 -5.71111e-25 0.000157091 -5.06412e-25 -3.76991)
)
;

boundaryField
{
    left
    {
        type            calculated;
        value           uniform (-6.91408e-09 1.50796e-13 -0.000161487 -2.16351e-20 -3.76991 9.42193e-25 -0.000161409 -6.45637e-18 -3.76991);
    }
    right
    {
        type            calculated;
        value           uniform (-6.91486e-09 -1.50796e-13 0.000161505 2.09772e-20 -3.77034 9.14818e-25 0.000161427 -6.45637e-18 -3.77034);
    }
    beam
    {
        type            empty;
        value           nonuniform List<tensor> 0();
    }
}


// ************************************************************************* //
