/*--------------------------------*- C++ -*----------------------------------*\
| =========                 |                                                 |
| \\      /  F ield         | OpenFOAM: The Open Source CFD Toolbox           |
|  \\    /   O peration     | Version:  2312                                  |
|   \\  /    A nd           | Website:  www.openfoam.com                      |
|    \\/     M anipulation  |                                                 |
\*---------------------------------------------------------------------------*/
FoamFile
{
    version     2.0;
    format      ascii;
    arch        "LSB;label=32;scalar=64";
    class       surfaceTensorField;
    location    "2";
    object      CMTheta2;
}
// * * * * * * * * * * * * * * * * * * * * * * * * * * * * * * * * * * * * * //

dimensions      [1 2 -2 0 0 0 0];

internalField   nonuniform List<tensor> 
59
(
(-0 -9.17672e-22 3.1209e-08 9.17672e-22 -0 3.78331e-23 -3.1209e-08 -3.78331e-23 -0)
(-0 -1.68964e-22 1.25332e-08 1.68964e-22 -0 3.64871e-23 -1.25332e-08 -3.64871e-23 -0)
(-0 -3.79921e-22 2.3709e-08 3.79921e-22 -0 3.51086e-23 -2.3709e-08 -3.51086e-23 -0)
(-0 -2.69778e-23 1.70213e-08 2.69778e-23 -0 3.37621e-23 -1.70213e-08 -3.37621e-23 -0)
(-0 -6.8326e-23 2.10233e-08 6.8326e-23 -0 3.24081e-23 -2.10233e-08 -3.24081e-23 -0)
(-0 7.9989e-23 1.86284e-08 -7.9989e-23 -0 3.10694e-23 -1.86284e-08 -3.10694e-23 -0)
(-0 7.95747e-23 2.00615e-08 -7.95747e-23 -0 2.97328e-23 -2.00615e-08 -2.97328e-23 -0)
(-0 9.80231e-23 1.92039e-08 -9.80231e-23 -0 2.84044e-23 -1.92039e-08 -2.84044e-23 -0)
(-0 7.73112e-23 1.97171e-08 -7.73112e-23 -0 2.70816e-23 -1.97171e-08 -2.70816e-23 -0)
(-0 7.26296e-23 1.941e-08 -7.26296e-23 -0 2.57661e-23 -1.941e-08 -2.57661e-23 -0)
(-0 3.08813e-23 1.95938e-08 -3.08813e-23 -0 2.44559e-23 -1.95938e-08 -2.44559e-23 -0)
(-0 2.75097e-22 1.94838e-08 -2.75097e-22 -0 2.31591e-23 -1.94838e-08 -2.31591e-23 -0)
(-0 -1.91037e-22 1.95496e-08 1.91037e-22 -0 2.18508e-23 -1.95496e-08 -2.18508e-23 -0)
(-0 -2.71573e-22 1.95102e-08 2.71573e-22 -0 2.0556e-23 -1.95102e-08 -2.0556e-23 -0)
(-0 -2.02378e-22 1.95338e-08 2.02378e-22 -0 1.92716e-23 -1.95338e-08 -1.92716e-23 -0)
(-0 -6.51711e-22 1.95197e-08 6.51711e-22 -0 1.79796e-23 -1.95197e-08 -1.79796e-23 -0)
(-0 -1.82626e-22 1.95281e-08 1.82626e-22 -0 1.67108e-23 -1.95281e-08 -1.67108e-23 -0)
(-0 2.42846e-22 1.95231e-08 -2.42846e-22 -0 1.5445e-23 -1.95231e-08 -1.5445e-23 -0)
(-0 -2.08087e-22 1.95261e-08 2.08087e-22 -0 1.41682e-23 -1.95261e-08 -1.41682e-23 -0)
(-0 3.95439e-21 1.95243e-08 -3.95439e-21 -0 1.29607e-23 -1.95243e-08 -1.29607e-23 -0)
(-0 -1.36823e-21 1.95254e-08 1.36823e-21 -0 1.16356e-23 -1.95254e-08 -1.16356e-23 -0)
(-0 3.18082e-21 1.95247e-08 -3.18082e-21 -0 1.04129e-23 -1.95247e-08 -1.04129e-23 -0)
(-0 -4.77957e-21 1.95251e-08 4.77957e-21 -0 9.09615e-24 -1.95251e-08 -9.09615e-24 -0)
(-0 8.93146e-21 1.95249e-08 -8.93146e-21 -0 7.92586e-24 -1.95249e-08 -7.92586e-24 -0)
(-0 -1.42962e-20 1.9525e-08 1.42962e-20 -0 6.55761e-24 -1.9525e-08 -6.55761e-24 -0)
(-0 2.43374e-20 1.95249e-08 -2.43374e-20 -0 5.44137e-24 -1.95249e-08 -5.44137e-24 -0)
(-0 -4.17324e-20 1.9525e-08 4.17324e-20 -0 4.04691e-24 -1.9525e-08 -4.04691e-24 -0)
(-0 6.95167e-20 1.95249e-08 -6.95167e-20 -0 2.88015e-24 -1.95249e-08 -2.88015e-24 -0)
(-0 -1.15946e-19 1.9525e-08 1.15946e-19 -0 1.75956e-24 -1.9525e-08 -1.75956e-24 -0)
(-0 -5.76837e-19 1.9525e-08 5.76837e-19 -0 -1.50489e-25 -1.9525e-08 1.50489e-25 -0)
(-0 -1.15824e-19 1.9525e-08 1.15824e-19 -0 -2.06033e-24 -1.9525e-08 2.06033e-24 -0)
(-0 6.93915e-20 1.95249e-08 -6.93915e-20 -0 -3.18025e-24 -1.95249e-08 3.18025e-24 -0)
(-0 -4.1331e-20 1.9525e-08 4.1331e-20 -0 -4.34965e-24 -1.9525e-08 4.34965e-24 -0)
(-0 2.46518e-20 1.95249e-08 -2.46518e-20 -0 -5.74275e-24 -1.95249e-08 5.74275e-24 -0)
(-0 -1.53405e-20 1.9525e-08 1.53405e-20 -0 -6.85067e-24 -1.9525e-08 6.85067e-24 -0)
(-0 8.6327e-21 1.95249e-08 -8.6327e-21 -0 -8.22647e-24 -1.95249e-08 8.22647e-24 -0)
(-0 -5.14059e-21 1.95251e-08 5.14059e-21 -0 -9.39466e-24 -1.95251e-08 9.39466e-24 -0)
(-0 3.86112e-21 1.95247e-08 -3.86112e-21 -0 -1.07258e-23 -1.95247e-08 1.07258e-23 -0)
(-0 -1.34864e-21 1.95254e-08 1.34864e-21 -0 -1.19371e-23 -1.95254e-08 1.19371e-23 -0)
(-0 1.35479e-21 1.95243e-08 -1.35479e-21 -0 -1.32296e-23 -1.95243e-08 1.32296e-23 -0)
(-0 -7.10441e-22 1.95261e-08 7.10441e-22 -0 -1.44704e-23 -1.95261e-08 1.44704e-23 -0)
(-0 4.29594e-22 1.95231e-08 -4.29594e-22 -0 -1.57573e-23 -1.95231e-08 1.57573e-23 -0)
(-0 -4.15377e-22 1.95281e-08 4.15377e-22 -0 -1.70176e-23 -1.95281e-08 1.70176e-23 -0)
(-0 -5.98712e-22 1.95197e-08 5.98712e-22 -0 -1.8292e-23 -1.95197e-08 1.8292e-23 -0)
(-0 -1.75593e-22 1.95338e-08 1.75593e-22 -0 -1.95849e-23 -1.95338e-08 1.95849e-23 -0)
(-0 1.81856e-22 1.95102e-08 -1.81856e-22 -0 -2.08796e-23 -1.95102e-08 2.08796e-23 -0)
(-0 -6.64017e-23 1.95496e-08 6.64017e-23 -0 -2.21673e-23 -1.95496e-08 2.21673e-23 -0)
(-0 8.76117e-23 1.94838e-08 -8.76117e-23 -0 -2.34693e-23 -1.94838e-08 2.34693e-23 -0)
(-0 1.57506e-23 1.95938e-08 -1.57506e-23 -0 -2.47718e-23 -1.95938e-08 2.47718e-23 -0)
(-0 8.33857e-23 1.941e-08 -8.33857e-23 -0 -2.60839e-23 -1.941e-08 2.60839e-23 -0)
(-0 7.91145e-23 1.97171e-08 -7.91145e-23 -0 -2.74005e-23 -1.97171e-08 2.74005e-23 -0)
(-0 1.1173e-22 1.92039e-08 -1.1173e-22 -0 -2.8725e-23 -1.92039e-08 2.8725e-23 -0)
(-0 1.10108e-22 2.00616e-08 -1.10108e-22 -0 -3.00555e-23 -2.00616e-08 3.00555e-23 -0)
(-0 1.51476e-22 1.86284e-08 -1.51476e-22 -0 -3.13949e-23 -1.86284e-08 3.13949e-23 -0)
(-0 1.45672e-23 2.10234e-08 -1.45672e-23 -0 -3.27357e-23 -2.10234e-08 3.27357e-23 -0)
(-0 8.02714e-23 1.70212e-08 -8.02714e-23 -0 -3.40922e-23 -1.70212e-08 3.40922e-23 -0)
(-0 -3.98151e-22 2.37094e-08 3.98151e-22 -0 -3.54356e-23 -2.37094e-08 3.54356e-23 -0)
(-0 -1.97554e-22 1.2533e-08 1.97554e-22 -0 -3.68157e-23 -1.2533e-08 3.68157e-23 -0)
(-0 -8.95283e-22 3.12101e-08 8.95283e-22 -0 -3.81654e-23 -3.12101e-08 3.81654e-23 -0)
)
;

boundaryField
{
    left
    {
        type            calculated;
        value           uniform (-0 2.49045e-40 3.52162e-28 -2.49045e-40 -0 9.59625e-37 -3.52162e-28 -9.59625e-37 -0);
    }
    right
    {
        type            calculated;
        value           uniform (-0 1.82595e-40 8.80306e-28 -1.82595e-40 -0 4.05065e-36 -8.80306e-28 -4.05065e-36 -0);
    }
    beam
    {
        type            empty;
        value           nonuniform List<tensor> 0();
    }
}


// ************************************************************************* //
