/*--------------------------------*- C++ -*----------------------------------*\
| =========                 |                                                 |
| \\      /  F ield         | OpenFOAM: The Open Source CFD Toolbox           |
|  \\    /   O peration     | Version:  2312                                  |
|   \\  /    A nd           | Website:  www.openfoam.com                      |
|    \\/     M anipulation  |                                                 |
\*---------------------------------------------------------------------------*/
FoamFile
{
    version     2.0;
    format      ascii;
    arch        "LSB;label=32;scalar=64";
    class       surfaceVectorField;
    location    "2";
    object      Gamma;
}
// * * * * * * * * * * * * * * * * * * * * * * * * * * * * * * * * * * * * * //

dimensions      [0 0 0 0 0 0 0];

oriented        oriented;

internalField   nonuniform List<vector> 
59
(
(0.129305 -3.29019e-22 1.39309e-08)
(0.129305 2.50561e-22 -8.3364e-09)
(0.129305 -9.74344e-23 4.9886e-09)
(0.129305 1.19202e-22 -2.98523e-09)
(0.129305 3.77864e-24 1.7864e-09)
(0.129305 7.14774e-23 -1.069e-09)
(0.129305 3.51818e-23 6.39702e-10)
(0.129305 7.33244e-23 -3.82805e-10)
(0.129305 4.15142e-23 2.29075e-10)
(0.129305 6.77516e-23 -1.37081e-10)
(0.129305 5.13373e-23 8.20308e-11)
(0.129305 5.03437e-23 -4.90881e-11)
(0.129305 2.47794e-22 2.9375e-11)
(0.129305 -1.82868e-22 -1.75782e-11)
(0.129305 3.42932e-22 1.05191e-11)
(0.129305 2.57447e-22 -6.29466e-12)
(0.129305 -2.94574e-23 3.76686e-12)
(0.129305 2.32243e-23 -2.25406e-12)
(0.129305 2.64559e-22 1.3489e-12)
(0.129305 -1.33941e-21 -8.07129e-13)
(0.129305 2.85737e-21 4.83003e-13)
(0.129305 -4.11727e-21 -2.88961e-13)
(0.129305 6.2876e-21 1.72853e-13)
(0.129305 -1.09342e-20 -1.03271e-13)
(0.129305 1.74794e-20 6.1587e-14)
(0.129305 -3.09089e-20 -3.64442e-14)
(0.129305 4.93352e-20 2.11703e-14)
(0.129305 -8.16156e-20 -1.1563e-14)
(0.129305 1.39162e-19 5.10422e-15)
(0.129305 -6.06077e-23 5.02903e-18)
(0.129305 -1.39213e-19 -5.09592e-15)
(0.129305 8.34274e-20 1.15735e-14)
(0.129305 -4.9147e-20 -2.11636e-14)
(0.129305 2.92541e-20 3.64566e-14)
(0.129305 -1.83779e-20 -6.15835e-14)
(0.129305 1.01308e-20 1.0329e-13)
(0.129305 -6.95271e-21 -1.7286e-13)
(0.129305 3.21536e-21 2.88979e-13)
(0.129305 -1.91363e-21 -4.83027e-13)
(0.129305 1.27863e-21 8.07189e-13)
(0.129305 -8.45917e-22 -1.34897e-12)
(0.129305 2.00383e-22 2.2542e-12)
(0.129305 -2.14416e-22 -3.76708e-12)
(0.129305 1.29176e-22 6.29503e-12)
(0.129305 -4.63279e-22 -1.05197e-11)
(0.129305 3.27859e-23 1.75792e-11)
(0.129305 -2.45965e-22 -2.93767e-11)
(0.129305 -9.13475e-23 4.90909e-11)
(0.129305 -1.59281e-22 -8.20358e-11)
(0.129305 -1.18841e-22 1.37089e-10)
(0.129305 -1.38827e-22 -2.29089e-10)
(0.129305 -1.13457e-22 3.82827e-10)
(0.129305 -4.87269e-23 -6.39741e-10)
(0.129305 -7.75087e-23 1.06906e-09)
(0.129305 -8.68934e-24 -1.78651e-09)
(0.129305 -4.64872e-23 2.9854e-09)
(0.129305 1.70115e-22 -4.9889e-09)
(0.129305 -2.35422e-22 8.33688e-09)
(0.129305 3.77415e-22 -1.39317e-08)
)
;

boundaryField
{
    left
    {
        type            calculated;
        value           uniform (-0.129305 -4.51722e-14 2.32798e-08);
    }
    right
    {
        type            calculated;
        value           uniform (0.129305 -4.51671e-14 2.32783e-08);
    }
    beam
    {
        type            empty;
        value           nonuniform List<vector> 0();
    }
}


// ************************************************************************* //
