/*--------------------------------*- C++ -*----------------------------------*\
| =========                 |                                                 |
| \\      /  F ield         | OpenFOAM: The Open Source CFD Toolbox           |
|  \\    /   O peration     | Version:  2312                                  |
|   \\  /    A nd           | Website:  www.openfoam.com                      |
|    \\/     M anipulation  |                                                 |
\*---------------------------------------------------------------------------*/
FoamFile
{
    version     2.0;
    format      ascii;
    arch        "LSB;label=32;scalar=64";
    class       volVectorField;
    location    "2";
    object      U;
}
// * * * * * * * * * * * * * * * * * * * * * * * * * * * * * * * * * * * * * //

dimensions      [0 1 -1 0 0 0 0];

internalField   nonuniform List<vector> 
60
(
(0.00143125 3.21406e-23 4.73387e-07)
(0.00429375 9.20394e-24 1.39733e-06)
(0.00715625 6.03518e-24 2.2852e-06)
(0.0100188 8.53439e-24 3.14327e-06)
(0.0128813 -3.5482e-24 3.96878e-06)
(0.0157438 4.26153e-24 4.7628e-06)
(0.0186063 -7.33345e-24 5.52502e-06)
(0.0214688 3.01887e-24 6.25543e-06)
(0.0243313 -7.53145e-24 6.95417e-06)
(0.0271938 -1.22313e-24 7.62106e-06)
(0.0300563 1.1756e-24 8.25626e-06)
(0.0329188 -8.07951e-24 8.85966e-06)
(0.0357813 -7.85015e-25 9.43133e-06)
(0.0386438 4.22682e-24 9.97121e-06)
(0.0415063 1.53121e-23 1.04794e-05)
(0.0443688 -1.45692e-23 1.09557e-05)
(0.0472313 6.73418e-23 1.14004e-05)
(0.0500938 -9.30811e-23 1.18132e-05)
(0.0529563 1.39864e-22 1.21943e-05)
(0.0558188 -2.27113e-22 1.25437e-05)
(0.0586813 1.60252e-22 1.28613e-05)
(0.0615438 -2.80067e-22 1.31471e-05)
(0.0644061 3.73487e-22 1.34011e-05)
(0.0672686 -4.81344e-22 1.36235e-05)
(0.0701311 4.88709e-22 1.3814e-05)
(0.0729936 -3.36024e-22 1.39728e-05)
(0.0758561 -2.77204e-22 1.40998e-05)
(0.0787186 1.91363e-21 1.41951e-05)
(0.0815811 -5.59251e-21 1.42586e-05)
(0.0844436 1.33216e-20 1.42904e-05)
(0.0873061 1.3318e-20 1.42904e-05)
(0.0901686 -5.59517e-21 1.42586e-05)
(0.0930311 1.92047e-21 1.41951e-05)
(0.0958936 -3.04225e-22 1.40999e-05)
(0.0987561 -3.18324e-22 1.39728e-05)
(0.101619 5.13376e-22 1.3814e-05)
(0.104481 -4.83264e-22 1.36235e-05)
(0.107344 3.88729e-22 1.34012e-05)
(0.110206 -3.28389e-22 1.31471e-05)
(0.113069 2.13367e-22 1.28613e-05)
(0.115931 -1.60526e-22 1.25437e-05)
(0.118794 1.11136e-22 1.21943e-05)
(0.121656 -8.10013e-23 1.18132e-05)
(0.124519 6.71094e-23 1.14004e-05)
(0.127381 -1.79917e-23 1.09558e-05)
(0.130244 1.11677e-23 1.04794e-05)
(0.133106 -1.30863e-23 9.97124e-06)
(0.135969 7.00982e-24 9.43136e-06)
(0.138831 -7.62592e-24 8.85969e-06)
(0.141694 -5.6512e-25 8.2563e-06)
(0.144556 -1.38958e-24 7.6211e-06)
(0.147419 -9.447e-24 6.9542e-06)
(0.150281 5.54135e-24 6.25547e-06)
(0.153144 -1.83604e-23 5.52507e-06)
(0.156006 1.49739e-23 4.76284e-06)
(0.158869 -1.72404e-23 3.96883e-06)
(0.161731 -4.28056e-24 3.14332e-06)
(0.164594 -4.55616e-24 2.28525e-06)
(0.167456 1.31498e-23 1.39738e-06)
(0.170319 2.1973e-23 4.73441e-07)
)
;

boundaryField
{
    left
    {
        type            calculated;
        value           uniform (0 0 0);
    }
    right
    {
        type            calculated;
        value           uniform (0.17175 0 0);
    }
    beam
    {
        type            empty;
    }
}


// ************************************************************************* //
