/*--------------------------------*- C++ -*----------------------------------*\
| =========                 |                                                 |
| \\      /  F ield         | OpenFOAM: The Open Source CFD Toolbox           |
|  \\    /   O peration     | Version:  2312                                  |
|   \\  /    A nd           | Website:  www.openfoam.com                      |
|    \\/     M anipulation  |                                                 |
\*---------------------------------------------------------------------------*/
FoamFile
{
    version     2.0;
    format      ascii;
    arch        "LSB;label=32;scalar=64";
    class       volVectorField;
    location    "2";
    object      WIncrement;
}
// * * * * * * * * * * * * * * * * * * * * * * * * * * * * * * * * * * * * * //

dimensions      [0 1 0 0 0 0 0];

internalField   nonuniform List<vector> 
60
(
(2.8625e-06 6.42811e-26 9.46774e-10)
(8.5875e-06 1.84079e-26 2.79466e-09)
(1.43125e-05 1.20704e-26 4.57039e-09)
(2.00375e-05 1.70688e-26 6.28655e-09)
(2.57625e-05 -7.0964e-27 7.93756e-09)
(3.14875e-05 8.52305e-27 9.52559e-09)
(3.72125e-05 -1.46669e-26 1.105e-08)
(4.29375e-05 6.03774e-27 1.25109e-08)
(4.86625e-05 -1.50629e-26 1.39083e-08)
(5.43875e-05 -2.44626e-27 1.52421e-08)
(6.01125e-05 2.3512e-27 1.65125e-08)
(6.58375e-05 -1.6159e-26 1.77193e-08)
(7.15625e-05 -1.57003e-27 1.88627e-08)
(7.72875e-05 8.45363e-27 1.99424e-08)
(8.30125e-05 3.06242e-26 2.09587e-08)
(8.87375e-05 -2.91384e-26 2.19115e-08)
(9.44625e-05 1.34684e-25 2.28007e-08)
(0.000100188 -1.86162e-25 2.36264e-08)
(0.000105913 2.79728e-25 2.43887e-08)
(0.000111638 -4.54226e-25 2.50873e-08)
(0.000117363 3.20503e-25 2.57225e-08)
(0.000123088 -5.60134e-25 2.62942e-08)
(0.000128812 7.46974e-25 2.68023e-08)
(0.000134537 -9.62687e-25 2.72469e-08)
(0.000140262 9.77419e-25 2.7628e-08)
(0.000145987 -6.72048e-25 2.79456e-08)
(0.000151712 -5.54407e-25 2.81997e-08)
(0.000157437 3.82727e-24 2.83902e-08)
(0.000163162 -1.1185e-23 2.85173e-08)
(0.000168887 2.66431e-23 2.85808e-08)
(0.000174612 2.66359e-23 2.85808e-08)
(0.000180337 -1.11903e-23 2.85173e-08)
(0.000186062 3.84093e-24 2.83903e-08)
(0.000191787 -6.08449e-25 2.81997e-08)
(0.000197512 -6.36648e-25 2.79456e-08)
(0.000203237 1.02675e-24 2.76281e-08)
(0.000208962 -9.66528e-25 2.7247e-08)
(0.000214687 7.77458e-25 2.68023e-08)
(0.000220412 -6.56778e-25 2.62942e-08)
(0.000226137 4.26734e-25 2.57226e-08)
(0.000231862 -3.21051e-25 2.50874e-08)
(0.000237587 2.22272e-25 2.43887e-08)
(0.000243312 -1.62003e-25 2.36265e-08)
(0.000249037 1.34219e-25 2.28008e-08)
(0.000254762 -3.59835e-26 2.19115e-08)
(0.000260487 2.23354e-26 2.09588e-08)
(0.000266212 -2.61726e-26 1.99425e-08)
(0.000271937 1.40196e-26 1.88627e-08)
(0.000277662 -1.52518e-26 1.77194e-08)
(0.000283387 -1.13024e-27 1.65126e-08)
(0.000289112 -2.77916e-27 1.52422e-08)
(0.000294837 -1.8894e-26 1.39084e-08)
(0.000300562 1.10827e-26 1.25109e-08)
(0.000306287 -3.67209e-26 1.10501e-08)
(0.000312012 2.99477e-26 9.52568e-09)
(0.000317737 -3.44807e-26 7.93765e-09)
(0.000323462 -8.56111e-27 6.28664e-09)
(0.000329187 -9.11233e-27 4.57049e-09)
(0.000334912 2.62996e-26 2.79476e-09)
(0.000340637 4.39461e-26 9.46881e-10)
)
;

boundaryField
{
    left
    {
        type            calculated;
        value           uniform (0 0 0);
    }
    right
    {
        type            calculated;
        value           uniform (0.0003435 0 0);
    }
    beam
    {
        type            empty;
    }
}


// ************************************************************************* //
