/*--------------------------------*- C++ -*----------------------------------*\
| =========                 |                                                 |
| \\      /  F ield         | foam-extend: Open Source CFD                    |
|  \\    /   O peration     | Version:     4.1                                |
|   \\  /    A nd           | Web:         http://www.foam-extend.org         |
|    \\/     M anipulation  |                                                 |
\*---------------------------------------------------------------------------*/
FoamFile
{
    version     2.0;
    format      ascii;
    class       surfaceTensorField;
    location    "0";
    object      refLambda;
}
// * * * * * * * * * * * * * * * * * * * * * * * * * * * * * * * * * * * * * //

dimensions      [0 0 0 0 0 0 0];

internalField   nonuniform List<tensor> 
80
(
(0.0615591 -0.998103 0 0.998103 0.0615591 0 0 0 1)
(0.122885 -0.992421 0 0.992421 0.122885 0 0 0 1)
(0.183744 -0.982974 0 0.982974 0.183744 0 0 0 1)
(0.243907 -0.969799 0 0.969799 0.243907 0 0 0 1)
(0.303144 -0.952945 0 0.952945 0.303144 0 0 0 1)
(0.361231 -0.932476 0 0.932476 0.361231 0 0 0 1)
(0.417949 -0.908471 0 0.908471 0.417949 0 0 0 1)
(0.47308 -0.881019 0 0.881019 0.47308 0 0 0 1)
(0.526418 -0.850226 0 0.850226 0.526418 0 0 0 1)
(0.577759 -0.816208 0 0.816208 0.577759 0 0 0 1)
(0.626908 -0.779093 0 0.779093 0.626908 0 0 0 1)
(0.673679 -0.739024 0 0.739024 0.673679 0 0 0 1)
(0.717896 -0.696151 0 0.696151 0.717896 0 0 0 1)
(0.759389 -0.650637 0 0.650637 0.759389 0 0 0 1)
(0.798001 -0.602656 0 0.602656 0.798001 0 0 0 1)
(0.833587 -0.552389 0 0.552389 0.833587 0 0 0 1)
(0.866012 -0.500024 0 0.500024 0.866012 0 0 0 1)
(0.895147 -0.445772 0 0.445772 0.895147 0 0 0 1)
(0.920891 -0.38982 0 0.38982 0.920891 0 0 0 1)
(0.943142 -0.33239 0 0.33239 0.943142 0 0 0 1)
(0.961816 -0.273699 0 0.273699 0.961816 0 0 0 1)
(0.97684 -0.213969 0 0.213969 0.97684 0 0 0 1)
(0.988158 -0.153438 0 0.153438 0.988158 0 0 0 1)
(0.99573 -0.0923147 0 0.0923147 0.99573 0 0 0 1)
(0.999524 -0.0308414 0 0.0308414 0.999524 0 0 0 1)
(0.999527 0.0307488 0 -0.0307488 0.999527 0 0 0 1)
(0.995738 0.0922224 0 -0.0922224 0.995738 0 0 0 1)
(0.988173 0.153346 0 -0.153346 0.988173 0 0 0 1)
(0.97686 0.213879 0 -0.213879 0.97686 0 0 0 1)
(0.961841 0.273609 0 -0.273609 0.961841 0 0 0 1)
(0.943173 0.332302 0 -0.332302 0.943173 0 0 0 1)
(0.920927 0.389735 0 -0.389735 0.920927 0 0 0 1)
(0.895188 0.445689 0 -0.445689 0.895188 0 0 0 1)
(0.866058 0.499944 0 -0.499944 0.866058 0 0 0 1)
(0.833638 0.552311 0 -0.552311 0.833638 0 0 0 1)
(0.798056 0.602583 0 -0.602583 0.798056 0 0 0 1)
(0.759447 0.650569 0 -0.650569 0.759447 0 0 0 1)
(0.717957 0.696088 0 -0.696088 0.717957 0 0 0 1)
(0.673751 0.738959 0 -0.738959 0.673751 0 0 0 1)
(0.626982 0.779034 0 -0.779034 0.626982 0 0 0 1)
(0.577834 0.816154 0 -0.816154 0.577834 0 0 0 1)
(0.526495 0.850178 0 -0.850178 0.526495 0 0 0 1)
(0.473159 0.880977 0 -0.880977 0.473159 0 0 0 1)
(0.418036 0.90843 0 -0.90843 0.418036 0 0 0 1)
(0.36132 0.932442 0 -0.932442 0.36132 0 0 0 1)
(0.303232 0.952917 0 -0.952917 0.303232 0 0 0 1)
(0.243994 0.969777 0 -0.969777 0.243994 0 0 0 1)
(0.183831 0.982958 0 -0.982958 0.183831 0 0 0 1)
(0.122981 0.992409 0 -0.992409 0.122981 0 0 0 1)
(0.0616535 0.998098 0 -0.998098 0.0616535 0 0 0 1)
(6.12323e-17 0 1 0 1 0 -1 0 6.12323e-17)
(6.12323e-17 0 1 0 1 0 -1 0 6.12323e-17)
(6.12323e-17 0 1 0 1 0 -1 0 6.12323e-17)
(6.12323e-17 0 1 0 1 0 -1 0 6.12323e-17)
(6.12323e-17 0 1 0 1 0 -1 0 6.12323e-17)
(6.12323e-17 0 1 0 1 0 -1 0 6.12323e-17)
(6.12323e-17 0 1 0 1 0 -1 0 6.12323e-17)
(6.12323e-17 0 1 0 1 0 -1 0 6.12323e-17)
(6.12323e-17 0 1 0 1 0 -1 0 6.12323e-17)
(6.12323e-17 0 1 0 1 0 -1 0 6.12323e-17)
(6.12323e-17 0 1 0 1 0 -1 0 6.12323e-17)
(6.12323e-17 0 1 0 1 0 -1 0 6.12323e-17)
(6.12323e-17 0 1 0 1 0 -1 0 6.12323e-17)
(6.12323e-17 0 1 0 1 0 -1 0 6.12323e-17)
(6.12323e-17 0 1 0 1 0 -1 0 6.12323e-17)
(6.12323e-17 0 1 0 1 0 -1 0 6.12323e-17)
(6.12323e-17 0 1 0 1 0 -1 0 6.12323e-17)
(6.12323e-17 0 1 0 1 0 -1 0 6.12323e-17)
(6.12323e-17 0 1 0 1 0 -1 0 6.12323e-17)
(6.12323e-17 0 1 0 1 0 -1 0 6.12323e-17)
(6.12323e-17 0 1 0 1 0 -1 0 6.12323e-17)
(6.12323e-17 0 1 0 1 0 -1 0 6.12323e-17)
(6.12323e-17 0 1 0 1 0 -1 0 6.12323e-17)
(6.12323e-17 0 1 0 1 0 -1 0 6.12323e-17)
(6.12323e-17 0 1 0 1 0 -1 0 6.12323e-17)
(6.12323e-17 0 1 0 1 0 -1 0 6.12323e-17)
(6.12323e-17 0 1 0 1 0 -1 0 6.12323e-17)
(6.12323e-17 0 1 0 1 0 -1 0 6.12323e-17)
(6.12323e-17 0 1 0 1 0 -1 0 6.12323e-17)
(6.12323e-17 0 1 0 1 0 -1 0 6.12323e-17)
)
;

boundaryField
{
    left_0
    {
        type            calculated;
        value           uniform (6.12323e-17 -1 0 1 6.12323e-17 0 0 0 1);
    }
    left_1
    {
        type            calculated;
        value           uniform (6.12323e-17 0 1 0 1 0 -1 0 6.12323e-17);
    }
    right_0
    {
        type            calculated;
        value           uniform (9.26536e-05 1 0 -1 9.26536e-05 0 0 0 1);
    }
    right_1
    {
        type            calculated;
        value           uniform (6.12323e-17 0 1 0 1 0 -1 0 6.12323e-17);
    }
    beam
    {
        type            empty;
    }
}


// ************************************************************************* //
