/*--------------------------------*- C++ -*----------------------------------*\
| =========                 |                                                 |
| \\      /  F ield         | foam-extend: Open Source CFD                    |
|  \\    /   O peration     | Version:     4.1                                |
|   \\  /    A nd           | Web:         http://www.foam-extend.org         |
|    \\/     M anipulation  |                                                 |
\*---------------------------------------------------------------------------*/
FoamFile
{
    version     2.0;
    format      ascii;
    class       surfaceVectorField;
    location    "0";
    object      refWf;
}
// * * * * * * * * * * * * * * * * * * * * * * * * * * * * * * * * * * * * * //

dimensions      [0 1 0 0 0 0 0];

internalField   nonuniform List<vector> 
80
(
(-0.0597014 0.0615591 0)
(-0.115617 0.122885 0)
(-0.167768 0.183744 0)
(-0.216191 0.243907 0)
(-0.260935 0.303144 0)
(-0.302064 0.361231 0)
(-0.339657 0.417949 0)
(-0.373803 0.47308 0)
(-0.404608 0.526418 0)
(-0.432188 0.577759 0)
(-0.456671 0.626908 0)
(-0.4782 0.673679 0)
(-0.496926 0.717896 0)
(-0.51301 0.759389 0)
(-0.526627 0.798001 0)
(-0.537958 0.833587 0)
(-0.547194 0.866012 0)
(-0.554532 0.895147 0)
(-0.56018 0.920891 0)
(-0.56435 0.943142 0)
(-0.567259 0.961816 0)
(-0.569129 0.97684 0)
(-0.570188 0.988158 0)
(-0.570665 0.99573 0)
(-0.570791 0.999524 0)
(-0.570801 0.999527 0)
(-0.570928 0.995738 0)
(-0.571404 0.988173 0)
(-0.572461 0.97686 0)
(-0.574331 0.961841 0)
(-0.577238 0.943173 0)
(-0.581405 0.920927 0)
(-0.587051 0.895188 0)
(-0.594386 0.866058 0)
(-0.603619 0.833638 0)
(-0.614947 0.798056 0)
(-0.628561 0.759447 0)
(-0.644642 0.717957 0)
(-0.663361 0.673751 0)
(-0.684886 0.626982 0)
(-0.709366 0.577834 0)
(-0.736942 0.526495 0)
(-0.767743 0.473159 0)
(-0.80188 0.418036 0)
(-0.839468 0.36132 0)
(-0.880593 0.303232 0)
(-0.925333 0.243994 0)
(-0.973752 0.183831 0)
(-1.02589 0.122981 0)
(-1.0818 0.0616535 0)
(0.935484 1.1 0.935484)
(0.870968 1.1 0.870968)
(0.806452 1.1 0.806452)
(0.741935 1.1 0.741935)
(0.677419 1.1 0.677419)
(0.612903 1.1 0.612903)
(0.548387 1.1 0.548387)
(0.483871 1.1 0.483871)
(0.419355 1.1 0.419355)
(0.354839 1.1 0.354839)
(0.290323 1.1 0.290323)
(0.225806 1.1 0.225806)
(0.16129 1.1 0.16129)
(0.096774 1.1 0.096774)
(0.032258 1.1 0.032258)
(-0.03226 1.1 -0.03226)
(-0.09677 1.1 -0.09677)
(-0.16129 1.1 -0.16129)
(-0.22581 1.1 -0.22581)
(-0.29032 1.1 -0.29032)
(-0.35484 1.1 -0.35484)
(-0.41935 1.1 -0.41935)
(-0.48387 1.1 -0.48387)
(-0.54839 1.1 -0.54839)
(-0.6129 1.1 -0.6129)
(-0.67742 1.1 -0.67742)
(-0.74194 1.1 -0.74194)
(-0.80645 1.1 -0.80645)
(-0.87097 1.1 -0.87097)
(-0.93548 1.1 -0.93548)
)
;

boundaryField
{
    left_0
    {
        type            calculated;
        value           uniform (3.13822e-36 -3.13822e-36 0);
    }
    left_1
    {
        type            calculated;
        value           uniform (1 1.1 1);
    }
    right_0
    {
        type            calculated;
        value           uniform (-1.1415 9.26536e-05 0);
    }
    right_1
    {
        type            calculated;
        value           uniform (-1 1.1 -1);
    }
    beam
    {
        type            empty;
    }
}


// ************************************************************************* //
