/*--------------------------------*- C++ -*----------------------------------*\
| =========                 |                                                 |
| \\      /  F ield         | OpenFOAM: The Open Source CFD Toolbox           |
|  \\    /   O peration     | Version:  2312                                  |
|   \\  /    A nd           | Website:  www.openfoam.com                      |
|    \\/     M anipulation  |                                                 |
\*---------------------------------------------------------------------------*/
FoamFile
{
    version     2.0;
    format      ascii;
    arch        "LSB;label=32;scalar=64";
    class       surfaceVectorField;
    location    "0.06/beam";
    object      Gamma;
}
// * * * * * * * * * * * * * * * * * * * * * * * * * * * * * * * * * * * * * //

dimensions      [0 0 0 0 0 0 0];

oriented        oriented;

internalField   nonuniform List<vector> 
59
(
(3.40041917e-05 1.173779222e-19 3.303707193e-09)
(3.400429505e-05 1.15121401e-19 3.106678534e-09)
(3.40044673e-05 1.109669026e-19 2.772789999e-09)
(3.400470846e-05 1.043411503e-19 2.294308746e-09)
(3.400501852e-05 9.447617755e-20 1.661464256e-09)
(3.40053975e-05 8.043056586e-20 8.634960431e-10)
(3.40058454e-05 6.117344468e-20 -1.100354597e-10)
(3.400636222e-05 3.559660099e-20 -1.267698297e-09)
(3.400694796e-05 2.626246129e-21 -2.614389588e-09)
(3.400760261e-05 -3.874019731e-20 -4.149380758e-09)
(3.400832616e-05 -8.935334352e-20 -5.864240858e-09)
(3.40091186e-05 -1.498106735e-19 -7.740677895e-09)
(3.40099799e-05 -2.203586339e-19 -9.74843533e-09)
(3.401091001e-05 -3.008007871e-19 -1.184325717e-08)
(3.401190892e-05 -3.903846954e-19 -1.396512995e-08)
(3.401297655e-05 -4.876921628e-19 -1.603682369e-08)
(3.401411289e-05 -5.905207486e-19 -1.796294705e-08)
(3.401531791e-05 -6.957689057e-19 -1.962959303e-08)
(3.401659161e-05 -7.993308043e-19 -2.090475634e-08)
(3.401793404e-05 -8.9599482e-19 -2.163962018e-08)
(3.40193453e-05 -9.793920409e-19 -2.167087561e-08)
(3.402082556e-05 -1.041947036e-18 -2.082413808e-08)
(3.402237492e-05 -1.074882799e-18 -1.891882798e-08)
(3.402399423e-05 -1.06831667e-18 -1.577255733e-08)
(3.402568316e-05 -1.011392391e-18 -1.121151041e-08)
(3.402744288e-05 -8.924752165e-19 -5.072747443e-09)
(3.402927298e-05 -6.995926588e-19 2.778417098e-09)
(3.403117453e-05 -4.2063787e-19 1.244987551e-08)
(3.40331467e-05 -4.426494824e-20 2.399826528e-08)
(3.403519001e-05 4.390791579e-19 3.743633309e-08)
(3.403730269e-05 1.038424892e-18 5.270215254e-08)
(3.403948419e-05 1.760537692e-18 6.967453663e-08)
(3.404173129e-05 2.606135721e-18 8.813786823e-08)
(3.404404199e-05 3.57297595e-18 1.078072212e-07)
(3.404641156e-05 4.652488383e-18 1.282918996e-07)
(3.404883681e-05 5.830655278e-18 1.491308112e-07)
(3.40513122e-05 7.085282751e-18 1.697587213e-07)
(3.405383465e-05 8.387529828e-18 1.895506266e-07)
(3.405639974e-05 9.699275527e-18 2.077951181e-07)
(3.405900693e-05 1.097539927e-17 2.237440788e-07)
(3.406165582e-05 1.216171922e-17 2.365972539e-07)
(3.406435159e-05 1.319801828e-17 2.455508092e-07)
(3.40671009e-05 1.401712425e-17 2.497960876e-07)
(3.406991722e-05 1.454846183e-17 2.485578342e-07)
(3.407281596e-05 1.471882392e-17 2.411084526e-07)
(3.407581927e-05 1.445599864e-17 2.26784662e-07)
(3.407894986e-05 1.369160263e-17 2.050165796e-07)
(3.408223512e-05 1.236398689e-17 1.753108979e-07)
(3.408569946e-05 1.042319312e-17 1.372926526e-07)
(3.408936783e-05 7.831970251e-18 9.064416972e-08)
(3.409325665e-05 4.572382713e-18 3.515708188e-08)
(3.409737736e-05 6.434401007e-19 -2.93804667e-08)
(3.410172616e-05 -3.931786747e-18 -1.031223246e-07)
(3.410628821e-05 -9.113679234e-18 -1.863315692e-07)
(3.411102634e-05 -1.484037783e-17 -2.793064057e-07)
(3.411588573e-05 -2.104238053e-17 -3.825990747e-07)
(3.412078122e-05 -2.764071621e-17 -4.969202529e-07)
(3.41256009e-05 -3.457073723e-17 -6.234026823e-07)
(3.413019038e-05 -4.178731305e-17 -7.63468256e-07)
)
;

boundaryField
{
    left
    {
        type            calculated;
        value           uniform (-3.400415729e-05 -4.517233718e-14 -3.368862153e-09);
    }
    right
    {
        type            calculated;
        value           uniform (3.413435157e-05 -4.521641821e-14 -9.191292008e-07);
    }
    beam
    {
        type            empty;
        value           nonuniform List<vector> 0();
    }
}


// ************************************************************************* //
