/*--------------------------------*- C++ -*----------------------------------*\
| =========                 |                                                 |
| \\      /  F ield         | OpenFOAM: The Open Source CFD Toolbox           |
|  \\    /   O peration     | Version:  2312                                  |
|   \\  /    A nd           | Website:  www.openfoam.com                      |
|    \\/     M anipulation  |                                                 |
\*---------------------------------------------------------------------------*/
FoamFile
{
    version     2.0;
    format      ascii;
    arch        "LSB;label=32;scalar=64";
    class       surfaceVectorField;
    location    "0.06/beam";
    object      K;
}
// * * * * * * * * * * * * * * * * * * * * * * * * * * * * * * * * * * * * * //

dimensions      [0 -1 0 0 0 0 0];

oriented        oriented;

internalField   nonuniform List<vector> 
59
(
(-9.621417414e-21 3.693232548e-05 -1.303281917e-15)
(-1.925344689e-20 7.241391069e-05 -2.590105783e-15)
(-2.891738989e-20 0.0001049572574 -3.841450977e-15)
(-3.861761096e-20 0.0001330047099 -5.033156376e-15)
(-4.836994121e-20 0.0001549017186 -6.133604147e-15)
(-5.816106918e-20 0.0001688800779 -7.101750336e-15)
(-6.799858303e-20 0.0001730542166 -7.885603884e-15)
(-7.791013529e-20 0.0001654333271 -8.421372368e-15)
(-8.788243838e-20 0.000143952036 -8.633144795e-15)
(-9.798202307e-20 0.0001065218525 -8.433489889e-15)
(-1.081979053e-19 5.110493154e-05 -7.72477557e-15)
(-1.185709513e-19 -2.418872126e-05 -6.40133774e-15)
(-1.291576842e-19 -0.0001209804536 -4.352851197e-15)
(-1.400369954e-19 -0.0002404792635 -1.468693878e-15)
(-1.513099889e-19 -0.0003833171025 2.356504105e-15)
(-1.631124489e-19 -0.0005493663696 7.216105208e-15)
(-1.755970677e-19 -0.0007375440991 1.318343268e-14)
(-1.889353201e-19 -0.0009456089543 2.030245015e-14)
(-2.033473223e-19 -0.001169958567 2.857723328e-14)
(-2.190170031e-19 -0.001405436307 3.796030858e-14)
(-2.362217083e-19 -0.001645158006 4.834010563e-14)
(-2.553172081e-19 -0.001880363916 5.952754023e-14)
(-2.763504998e-19 -0.002100342621 7.12436758e-14)
(-2.996868119e-19 -0.002292373714 8.310631605e-14)
(-3.25508222e-19 -0.002441752147 9.461782452e-14)
(-3.541221028e-19 -0.002531915434 1.05156396e-13)
(-3.859185195e-19 -0.002544653615 1.139695761e-13)
(-4.214359464e-19 -0.002460413986 1.20171627e-13)
(-4.617595686e-19 -0.002258732973 1.227469842e-13)
(-5.369954994e-19 -0.0019187628 1.205644088e-13)
(-6.160764034e-19 -0.001419927632 1.123897955e-13)
(-6.859686513e-19 -0.0007426649188 9.690160168e-14)
(-7.752441041e-19 0.0001307240012 7.273684037e-14)
(-8.917925057e-19 0.001215167604 3.854094439e-14)
(-1.045359159e-18 0.002521855137 -6.980835579e-15)
(-1.247776647e-18 0.004057261578 -6.499825199e-14)
(-1.511805529e-18 0.0058221815 -1.364806507e-13)
(-1.850693288e-18 0.007810821913 -2.221149405e-13)
(-2.27534137e-18 0.01000999304 -3.222174285e-13)
(-2.793403958e-18 0.01239842701 -4.366437167e-13)
(-3.40437828e-18 0.01494628591 -5.64699804e-13)
(-4.098466424e-18 0.01761485357 -7.050585234e-13)
(-4.852995497e-18 0.02035648873 -8.556876196e-13)
(-5.630374534e-18 0.02311478359 -1.013792435e-12)
(-6.37654749e-18 0.0258250121 -1.175782476e-12)
(-7.025027259e-18 0.02841475012 -1.337262369e-12)
(-7.49693877e-18 0.030804748 -1.493058522e-12)
(-7.713896991e-18 0.03290987193 -1.637277608e-12)
(-7.605991033e-18 0.0346401824 -1.763408515e-12)
(-7.127583329e-18 0.03590190697 -1.864457409e-12)
(-6.2719809e-18 0.03659836207 -1.933124953e-12)
(-5.083272303e-18 0.03663053936 -1.962007041e-12)
(-3.666490369e-18 0.03589740732 -1.943821747e-12)
(-2.190151057e-18 0.03429562833 -1.871634151e-12)
(-8.467088913e-19 0.03171875963 -1.739071021e-12)
(1.672258813e-19 0.02805565339 -1.540486291e-12)
(6.892709028e-19 0.02318817366 -1.271055832e-12)
(6.869822302e-19 0.01698798384 -9.267506857e-13)
(3.213302635e-19 0.009312610171 -5.041499002e-13)
)
;

boundaryField
{
    left
    {
        type            calculated;
        value           uniform (-2.227079918e-30 8.908553136e-30 7.355068112e-36);
    }
    right
    {
        type            calculated;
        value           uniform (-1.689051559e-31 5.010884529e-30 6.586097779e-32);
    }
    beam
    {
        type            empty;
        value           nonuniform List<vector> 0();
    }
}


// ************************************************************************* //
