/*--------------------------------*- C++ -*----------------------------------*\
| =========                 |                                                 |
| \\      /  F ield         | OpenFOAM: The Open Source CFD Toolbox           |
|  \\    /   O peration     | Version:  2312                                  |
|   \\  /    A nd           | Website:  www.openfoam.com                      |
|    \\/     M anipulation  |                                                 |
\*---------------------------------------------------------------------------*/
FoamFile
{
    version     2.0;
    format      ascii;
    arch        "LSB;label=32;scalar=64";
    class       surfaceVectorField;
    location    "0.06/beam";
    object      M;
}
// * * * * * * * * * * * * * * * * * * * * * * * * * * * * * * * * * * * * * //

dimensions      [1 2 -2 0 0 0 0];

oriented        oriented;

internalField   nonuniform List<vector> 
59
(
(-7.241467646e-24 2.227706168e-08 -7.860030936e-19)
(-1.515104995e-23 4.367905713e-08 -1.562083568e-18)
(-2.45471209e-23 6.330874828e-08 -2.316773216e-18)
(-3.65380588e-23 8.022657892e-08 -3.035503378e-18)
(-5.262835007e-23 9.343454803e-08 -3.699207921e-18)
(-7.478209393e-23 1.018660986e-07 -4.283135367e-18)
(-1.05447049e-22 1.043838807e-07 -4.755931481e-18)
(-1.475509826e-22 9.978706687e-08 -5.079123941e-18)
(-2.044864569e-22 8.682985279e-08 -5.206930918e-18)
(-2.801263321e-22 6.425249011e-08 -5.086621777e-18)
(-3.788782751e-22 3.082577923e-08 -4.659312745e-18)
(-5.058209374e-22 -1.459029802e-08 -3.86127477e-18)
(-6.669834087e-22 -7.297371586e-08 -2.625966428e-18)
(-8.697876508e-22 -1.45053725e-07 -8.866659133e-19)
(-1.12370215e-21 -2.312115098e-07 1.420182395e-18)
(-1.441127797e-21 -3.31370103e-07 4.350893829e-18)
(-1.838532674e-21 -4.44876275e-07 7.949699419e-18)
(-2.337816771e-21 -5.703780827e-07 1.224312458e-17)
(-2.96782529e-21 -7.057026283e-07 1.723363925e-17)
(-3.765883541e-21 -8.477395044e-07 2.289262457e-17)
(-4.779119669e-21 -9.923362768e-07 2.915280489e-17)
(-6.06522363e-21 -1.134209189e-06 3.590015529e-17)
(-7.692473023e-21 -1.266897264e-06 4.296645941e-17)
(-9.738362814e-21 -1.382727731e-06 5.012122247e-17)
(-1.228646957e-20 -1.472830711e-06 5.706432417e-17)
(-1.542205921e-20 -1.527215943e-06 6.34207532e-17)
(-1.922612495e-20 -1.534899435e-06 6.873669788e-17)
(-2.376933298e-20 -1.48408727e-06 7.247795585e-17)
(-2.910754447e-20 -1.362436107e-06 7.403201821e-17)
(-3.528876898e-20 -1.157370858e-06 7.271660388e-17)
(-4.23587208e-20 -8.564804689e-07 6.778738349e-17)
(-5.036746277e-20 -4.479650817e-07 5.844728314e-17)
(-5.942130762e-20 7.88508874e-08 4.387422433e-17)
(-6.97583999e-20 7.329720862e-07 2.325119818e-17)
(-8.183523593e-20 1.521147713e-06 -4.202735082e-18)
(-9.644736288e-20 2.447283382e-06 -3.919313421e-17)
(-1.148708452e-19 3.511858371e-06 -8.230469378e-17)
(-1.390127986e-19 4.711378427e-06 -1.339517672e-16)
(-1.715456991e-19 6.037887659e-06 -1.943251891e-16)
(-2.159960793e-19 7.478557596e-06 -2.633379269e-16)
(-2.767398942e-19 9.015390415e-06 -3.405714592e-16)
(-3.588615803e-19 1.062503306e-05 -4.252253701e-16)
(-4.678181407e-19 1.227874901e-05 -5.160739652e-16)
(-6.088749563e-19 1.394251386e-05 -6.11431697e-16)
(-7.862814296e-19 1.557728575e-05 -7.091329964e-16)
(-1.002207544e-18 1.713937946e-05 -8.065268178e-16)
(-1.255497112e-18 1.858099273e-05 -9.004927221e-16)
(-1.540365954e-18 1.985077401e-05 -9.874761623e-16)
(-1.845244393e-18 2.089447306e-05 -1.063549987e-15)
(-2.15201538e-18 2.165552766e-05 -1.124495928e-15)
(-2.435981276e-18 2.207561962e-05 -1.165911509e-15)
(-2.666846026e-18 2.209502852e-05 -1.183331138e-15)
(-2.81102492e-18 2.165281353e-05 -1.172363003e-15)
(-2.835361127e-18 2.068664287e-05 -1.128824659e-15)
(-2.712200074e-18 1.913231175e-05 -1.048872478e-15)
(-2.425321821e-18 1.692277734e-05 -9.291013925e-16)
(-1.975916583e-18 1.398678171e-05 -7.666019781e-16)
(-1.387241961e-18 1.024691402e-05 -5.58944209e-16)
(-7.06215293e-19 5.617236079e-06 -3.040645078e-16)
)
;

boundaryField
{
    left
    {
        type            calculated;
        value           uniform (-2.686682402e-33 5.373514532e-33 6.119008947e-38);
    }
    right
    {
        type            calculated;
        value           uniform (-2.027676738e-34 3.022495396e-33 4.452479831e-35);
    }
    beam
    {
        type            empty;
        value           nonuniform List<vector> 0();
    }
}


// ************************************************************************* //
