/*--------------------------------*- C++ -*----------------------------------*\
| =========                 |                                                 |
| \\      /  F ield         | OpenFOAM: The Open Source CFD Toolbox           |
|  \\    /   O peration     | Version:  2312                                  |
|   \\  /    A nd           | Website:  www.openfoam.com                      |
|    \\/     M anipulation  |                                                 |
\*---------------------------------------------------------------------------*/
FoamFile
{
    version     2.0;
    format      ascii;
    arch        "LSB;label=32;scalar=64";
    class       pointVectorField;
    location    "0.06/beam";
    object      pointW;
}
// * * * * * * * * * * * * * * * * * * * * * * * * * * * * * * * * * * * * * //

dimensions      [0 1 0 0 0 0 0];

internalField   nonuniform List<vector> 
1952
(
(-8.449806241e-08 2.124392613e-17 -2.773793348e-12)
(-8.287443214e-08 2.081668171e-17 -2.720499173e-12)
(-7.80660699e-08 1.973247954e-17 -2.562660587e-12)
(-7.025760395e-08 1.778091563e-17 -2.306337846e-12)
(-5.974921367e-08 1.517883041e-17 -1.961385481e-12)
(-4.694458853e-08 1.170938346e-17 -1.541054177e-12)
(-3.233592977e-08 8.239936511e-18 -1.061502015e-12)
(-1.648474812e-08 4.33680869e-18 -5.411609745e-13)
(-3.766053113e-18 0 -2.12438466e-17)
(1.648474812e-08 -4.33680869e-18 5.411192328e-13)
(3.233592976e-08 -8.239936511e-18 1.06146255e-12)
(4.694458853e-08 -1.170938346e-17 1.541019048e-12)
(5.974921366e-08 -1.517883041e-17 1.961355123e-12)
(7.025760395e-08 -1.778091563e-17 2.306314428e-12)
(7.80660699e-08 -1.973247954e-17 2.562644541e-12)
(8.287443214e-08 -2.081668171e-17 2.720491367e-12)
(8.449806241e-08 -2.124392613e-17 2.773793348e-12)
(8.287443214e-08 -2.081668171e-17 2.720499173e-12)
(7.80660699e-08 -1.973247954e-17 2.562660587e-12)
(7.025760395e-08 -1.778091563e-17 2.306337846e-12)
(5.974921367e-08 -1.517883041e-17 1.961385481e-12)
(4.694458853e-08 -1.170938346e-17 1.541054177e-12)
(3.233592977e-08 -8.239936511e-18 1.061502015e-12)
(1.648474812e-08 -4.33680869e-18 5.411609745e-13)
(3.766061128e-18 0 2.12438466e-17)
(-1.648474812e-08 4.33680869e-18 -5.411192328e-13)
(-3.233592976e-08 8.239936511e-18 -1.06146255e-12)
(-4.694458853e-08 1.170938346e-17 -1.541019048e-12)
(-5.974921366e-08 1.517883041e-17 -1.961355123e-12)
(-7.025760395e-08 1.778091563e-17 -2.306314428e-12)
(-7.80660699e-08 1.973247954e-17 -2.562644541e-12)
(-8.287443214e-08 2.081668171e-17 -2.720491367e-12)
(1.417716625e-06 9.789308621e-16 -9.532745457e-07)
(1.419403096e-06 9.784924607e-16 -9.532744974e-07)
(1.424397558e-06 9.772998383e-16 -9.532743546e-07)
(1.432508238e-06 9.753482744e-16 -9.532741227e-07)
(1.443423338e-06 9.727461892e-16 -9.532738106e-07)
(1.456723546e-06 9.692767422e-16 -9.532734302e-07)
(1.471897609e-06 9.658072953e-16 -9.532729963e-07)
(1.488362285e-06 9.619041674e-16 -9.532725255e-07)
(1.505485049e-06 9.575673587e-16 -9.532720358e-07)
(1.522607812e-06 9.5323055e-16 -9.532715462e-07)
(1.539072488e-06 9.493274222e-16 -9.532710754e-07)
(1.554246552e-06 9.458579753e-16 -9.532706415e-07)
(1.567546759e-06 9.423885283e-16 -9.532702611e-07)
(1.57846186e-06 9.397864431e-16 -9.53269949e-07)
(1.58657254e-06 9.378348792e-16 -9.532697171e-07)
(1.591567002e-06 9.368590972e-16 -9.532695742e-07)
(1.593253472e-06 9.364428431e-16 -9.53269526e-07)
(1.591567002e-06 9.368590972e-16 -9.532695742e-07)
(1.58657254e-06 9.378348792e-16 -9.53269717e-07)
(1.57846186e-06 9.397864431e-16 -9.53269949e-07)
(1.567546759e-06 9.423885283e-16 -9.532702611e-07)
(1.554246552e-06 9.458579753e-16 -9.532706414e-07)
(1.539072488e-06 9.493274222e-16 -9.532710753e-07)
(1.522607812e-06 9.5323055e-16 -9.532715462e-07)
(1.505485049e-06 9.575673587e-16 -9.532720358e-07)
(1.488362285e-06 9.619041674e-16 -9.532725254e-07)
(1.471897609e-06 9.658072953e-16 -9.532729963e-07)
(1.456723546e-06 9.692767422e-16 -9.532734302e-07)
(1.443423338e-06 9.727461892e-16 -9.532738105e-07)
(1.432508238e-06 9.753482744e-16 -9.532741227e-07)
(1.424397558e-06 9.772998383e-16 -9.532743546e-07)
(1.419403096e-06 9.784924607e-16 -9.532744974e-07)
(2.913523086e-06 9.34076993e-16 -1.9782405e-06)
(2.915395606e-06 9.336064907e-16 -1.978240461e-06)
(2.920941052e-06 9.326307088e-16 -1.978240346e-06)
(2.929946495e-06 9.306791449e-16 -1.978240159e-06)
(2.942065739e-06 9.280770596e-16 -1.978239907e-06)
(2.956833213e-06 9.246076127e-16 -1.978239601e-06)
(2.973681265e-06 9.211381657e-16 -1.978239251e-06)
(2.991962309e-06 9.168013571e-16 -1.978238871e-06)
(3.01097404e-06 9.124645484e-16 -1.978238476e-06)
(3.029985771e-06 9.081277397e-16 -1.978238082e-06)
(3.048266815e-06 9.046582927e-16 -1.978237702e-06)
(3.065114867e-06 9.011888458e-16 -1.978237352e-06)
(3.079882341e-06 8.977193988e-16 -1.978237046e-06)
(3.092001585e-06 8.951173136e-16 -1.978236794e-06)
(3.101007028e-06 8.931657497e-16 -1.978236607e-06)
(3.106552475e-06 8.919731273e-16 -1.978236492e-06)
(3.108424995e-06 8.915887964e-16 -1.978236453e-06)
(3.106552475e-06 8.919731273e-16 -1.978236492e-06)
(3.101007028e-06 8.931657497e-16 -1.978236607e-06)
(3.092001585e-06 8.951173136e-16 -1.978236794e-06)
(3.079882341e-06 8.977193988e-16 -1.978237046e-06)
(3.065114867e-06 9.011888458e-16 -1.978237352e-06)
(3.048266815e-06 9.046582927e-16 -1.978237702e-06)
(3.029985771e-06 9.081277397e-16 -1.978238082e-06)
(3.01097404e-06 9.124645484e-16 -1.978238476e-06)
(2.991962309e-06 9.168013571e-16 -1.978238871e-06)
(2.973681265e-06 9.211381657e-16 -1.978239251e-06)
(2.956833213e-06 9.246076127e-16 -1.9782396e-06)
(2.942065739e-06 9.280770596e-16 -1.978239907e-06)
(2.929946495e-06 9.306791449e-16 -1.978240159e-06)
(2.920941052e-06 9.326307088e-16 -1.978240346e-06)
(2.915395606e-06 9.336064907e-16 -1.978240461e-06)
(4.403310954e-06 8.841668116e-16 -3.143734207e-06)
(4.40548527e-06 8.837331908e-16 -3.14373418e-06)
(4.411924484e-06 8.827574088e-16 -3.143734101e-06)
(4.422381347e-06 8.808058449e-16 -3.143733971e-06)
(4.436453867e-06 8.782037597e-16 -3.143733797e-06)
(4.453601436e-06 8.747343128e-16 -3.143733585e-06)
(4.473164912e-06 8.712648658e-16 -3.143733343e-06)
(4.494392338e-06 8.664943763e-16 -3.14373308e-06)
(4.516468217e-06 8.621575676e-16 -3.143732807e-06)
(4.538544095e-06 8.578207589e-16 -3.143732534e-06)
(4.559771521e-06 8.547849928e-16 -3.143732271e-06)
(4.579334997e-06 8.513155458e-16 -3.143732029e-06)
(4.596482566e-06 8.478460989e-16 -3.143731817e-06)
(4.610555086e-06 8.452440137e-16 -3.143731643e-06)
(4.621011949e-06 8.432924498e-16 -3.143731514e-06)
(4.627451163e-06 8.420998274e-16 -3.143731434e-06)
(4.629625479e-06 8.41678585e-16 -3.143731407e-06)
(4.627451163e-06 8.420998274e-16 -3.143731434e-06)
(4.621011949e-06 8.432924498e-16 -3.143731514e-06)
(4.610555086e-06 8.452440137e-16 -3.143731643e-06)
(4.596482566e-06 8.478460989e-16 -3.143731817e-06)
(4.579334997e-06 8.513155458e-16 -3.143732029e-06)
(4.559771521e-06 8.547849928e-16 -3.143732271e-06)
(4.538544095e-06 8.578207589e-16 -3.143732534e-06)
(4.516468217e-06 8.621575676e-16 -3.143732807e-06)
(4.494392338e-06 8.664943763e-16 -3.14373308e-06)
(4.473164912e-06 8.712648658e-16 -3.143733343e-06)
(4.453601436e-06 8.747343128e-16 -3.143733585e-06)
(4.436453867e-06 8.782037597e-16 -3.143733797e-06)
(4.422381347e-06 8.808058449e-16 -3.143733971e-06)
(4.411924484e-06 8.827574088e-16 -3.143734101e-06)
(4.40548527e-06 8.837331908e-16 -3.14373418e-06)
(5.887739107e-06 8.267562959e-16 -4.51279584e-06)
(5.890318316e-06 8.262704757e-16 -4.51279583e-06)
(5.897956615e-06 8.252946937e-16 -4.512795801e-06)
(5.910360713e-06 8.235599702e-16 -4.512795752e-06)
(5.927053762e-06 8.20957885e-16 -4.512795688e-06)
(5.947394484e-06 8.174884381e-16 -4.512795609e-06)
(5.970600993e-06 8.140189911e-16 -4.512795518e-06)
(5.995781306e-06 8.092485015e-16 -4.512795421e-06)
(6.021968067e-06 8.049116929e-16 -4.512795319e-06)
(6.048154829e-06 8.005748842e-16 -4.512795217e-06)
(6.073335141e-06 7.975391181e-16 -4.512795119e-06)
(6.096541651e-06 7.940696711e-16 -4.512795029e-06)
(6.116882372e-06 7.906002242e-16 -4.51279495e-06)
(6.133575421e-06 7.87998139e-16 -4.512794885e-06)
(6.145979519e-06 7.858297346e-16 -4.512794837e-06)
(6.153617818e-06 7.846371122e-16 -4.512794808e-06)
(6.156197028e-06 7.84268024e-16 -4.512794798e-06)
(6.153617818e-06 7.846371122e-16 -4.512794808e-06)
(6.145979519e-06 7.858297346e-16 -4.512794837e-06)
(6.133575421e-06 7.87998139e-16 -4.512794885e-06)
(6.116882372e-06 7.906002242e-16 -4.51279495e-06)
(6.096541651e-06 7.940696711e-16 -4.512795029e-06)
(6.073335141e-06 7.975391181e-16 -4.512795119e-06)
(6.048154829e-06 8.005748842e-16 -4.512795217e-06)
(6.021968067e-06 8.049116929e-16 -4.512795319e-06)
(5.995781306e-06 8.092485015e-16 -4.512795421e-06)
(5.970600993e-06 8.140189911e-16 -4.512795518e-06)
(5.947394484e-06 8.174884381e-16 -4.512795609e-06)
(5.927053762e-06 8.20957885e-16 -4.512795688e-06)
(5.910360713e-06 8.235599702e-16 -4.512795752e-06)
(5.897956615e-06 8.252946937e-16 -4.512795801e-06)
(5.890318316e-06 8.262704757e-16 -4.51279583e-06)
(7.367750745e-06 7.595240304e-16 -6.139602668e-06)
(7.370819822e-06 7.591583612e-16 -6.13960268e-06)
(7.379908857e-06 7.578573186e-16 -6.139602715e-06)
(7.394668857e-06 7.563394355e-16 -6.139602773e-06)
(7.414532405e-06 7.537373503e-16 -6.13960285e-06)
(7.438736425e-06 7.502679034e-16 -6.139602944e-06)
(7.46635053e-06 7.467984564e-16 -6.139603051e-06)
(7.496313322e-06 7.424616477e-16 -6.139603167e-06)
(7.527473716e-06 7.38124839e-16 -6.139603288e-06)
(7.55863411e-06 7.337880303e-16 -6.139603409e-06)
(7.588596902e-06 7.303185834e-16 -6.139603525e-06)
(7.616211007e-06 7.268491364e-16 -6.139603632e-06)
(7.640415027e-06 7.233796895e-16 -6.139603726e-06)
(7.660278575e-06 7.207776043e-16 -6.139603803e-06)
(7.675038574e-06 7.183923595e-16 -6.13960386e-06)
(7.68412761e-06 7.175249978e-16 -6.139603895e-06)
(7.687196687e-06 7.17035774e-16 -6.139603907e-06)
(7.68412761e-06 7.175249978e-16 -6.139603895e-06)
(7.675038574e-06 7.183923595e-16 -6.13960386e-06)
(7.660278575e-06 7.207776043e-16 -6.139603803e-06)
(7.640415027e-06 7.233796895e-16 -6.139603726e-06)
(7.616211007e-06 7.268491364e-16 -6.139603632e-06)
(7.588596902e-06 7.303185834e-16 -6.139603525e-06)
(7.55863411e-06 7.337880303e-16 -6.139603409e-06)
(7.527473716e-06 7.38124839e-16 -6.139603288e-06)
(7.496313322e-06 7.424616477e-16 -6.139603167e-06)
(7.46635053e-06 7.467984564e-16 -6.139603051e-06)
(7.438736425e-06 7.502679034e-16 -6.139602944e-06)
(7.414532405e-06 7.537373503e-16 -6.13960285e-06)
(7.394668857e-06 7.563394355e-16 -6.139602773e-06)
(7.379908857e-06 7.578573186e-16 -6.139602715e-06)
(7.370819822e-06 7.591583612e-16 -6.13960268e-06)
(8.844591111e-06 6.803356251e-16 -8.066218914e-06)
(8.848211095e-06 6.799031824e-16 -8.066218954e-06)
(8.858931638e-06 6.789274004e-16 -8.066219071e-06)
(8.876341097e-06 6.769758365e-16 -8.066219263e-06)
(8.899770206e-06 6.743737513e-16 -8.06621952e-06)
(8.928318913e-06 6.709043043e-16 -8.066219834e-06)
(8.960889825e-06 6.674348574e-16 -8.066220193e-06)
(8.996231019e-06 6.635317296e-16 -8.066220581e-06)
(9.032984789e-06 6.591949209e-16 -8.066220985e-06)
(9.069738559e-06 6.548581122e-16 -8.066221389e-06)
(9.105079753e-06 6.509549844e-16 -8.066221778e-06)
(9.137650665e-06 6.474855374e-16 -8.066222136e-06)
(9.166199372e-06 6.440160905e-16 -8.06622245e-06)
(9.189628481e-06 6.414140052e-16 -8.066222708e-06)
(9.207037941e-06 6.394624413e-16 -8.066222899e-06)
(9.217758483e-06 6.382698189e-16 -8.066223017e-06)
(9.221378467e-06 6.378472827e-16 -8.066223057e-06)
(9.217758483e-06 6.382698189e-16 -8.066223017e-06)
(9.207037941e-06 6.394624413e-16 -8.066222899e-06)
(9.189628481e-06 6.414140052e-16 -8.066222708e-06)
(9.166199372e-06 6.440160905e-16 -8.06622245e-06)
(9.137650665e-06 6.474855374e-16 -8.066222136e-06)
(9.105079753e-06 6.509549844e-16 -8.066221778e-06)
(9.069738559e-06 6.548581122e-16 -8.066221389e-06)
(9.032984789e-06 6.591949209e-16 -8.066220985e-06)
(8.996231019e-06 6.635317296e-16 -8.066220581e-06)
(8.960889825e-06 6.674348574e-16 -8.066220192e-06)
(8.928318913e-06 6.709043043e-16 -8.066219834e-06)
(8.899770206e-06 6.743737513e-16 -8.06621952e-06)
(8.876341097e-06 6.769758365e-16 -8.066219263e-06)
(8.858931638e-06 6.789274004e-16 -8.066219071e-06)
(8.848211095e-06 6.799031824e-16 -8.066218954e-06)
(1.031982873e-05 5.873258577e-16 -1.031913231e-05)
(1.032403051e-05 5.86878636e-16 -1.031913238e-05)
(1.033647406e-05 5.85902854e-16 -1.03191326e-05)
(1.035668155e-05 5.837344497e-16 -1.031913295e-05)
(1.038387617e-05 5.811323645e-16 -1.031913342e-05)
(1.041701321e-05 5.776629175e-16 -1.0319134e-05)
(1.04548189e-05 5.741934705e-16 -1.031913466e-05)
(1.049584011e-05 5.707240236e-16 -1.031913537e-05)
(1.053850092e-05 5.663872149e-16 -1.031913611e-05)
(1.058116174e-05 5.620504062e-16 -1.031913685e-05)
(1.062218295e-05 5.577135975e-16 -1.031913757e-05)
(1.065998864e-05 5.542441506e-16 -1.031913822e-05)
(1.069312567e-05 5.507747036e-16 -1.03191388e-05)
(1.072032029e-05 5.481726184e-16 -1.031913927e-05)
(1.074052779e-05 5.464378949e-16 -1.031913962e-05)
(1.075297133e-05 5.452452725e-16 -1.031913984e-05)
(1.075717312e-05 5.448374882e-16 -1.031913991e-05)
(1.075297133e-05 5.452452725e-16 -1.031913984e-05)
(1.074052779e-05 5.464378949e-16 -1.031913962e-05)
(1.072032029e-05 5.481726184e-16 -1.031913927e-05)
(1.069312567e-05 5.507747036e-16 -1.03191388e-05)
(1.065998864e-05 5.542441506e-16 -1.031913822e-05)
(1.062218295e-05 5.577135975e-16 -1.031913757e-05)
(1.058116174e-05 5.620504062e-16 -1.031913685e-05)
(1.053850092e-05 5.663872149e-16 -1.031913611e-05)
(1.049584011e-05 5.707240236e-16 -1.031913537e-05)
(1.04548189e-05 5.741934705e-16 -1.031913466e-05)
(1.041701321e-05 5.776629175e-16 -1.0319134e-05)
(1.038387617e-05 5.811323645e-16 -1.031913342e-05)
(1.035668155e-05 5.837344497e-16 -1.031913295e-05)
(1.033647406e-05 5.85902854e-16 -1.03191326e-05)
(1.032403051e-05 5.86878636e-16 -1.031913238e-05)
(1.179537708e-05 4.789905719e-16 -1.290555852e-05)
(1.18001548e-05 4.785668389e-16 -1.290555863e-05)
(1.181430396e-05 4.774826368e-16 -1.290555896e-05)
(1.183728126e-05 4.757479133e-16 -1.290555949e-05)
(1.18682034e-05 4.731458281e-16 -1.290556021e-05)
(1.190588247e-05 4.696763811e-16 -1.290556108e-05)
(1.194887012e-05 4.662069342e-16 -1.290556207e-05)
(1.199551403e-05 4.623038063e-16 -1.290556314e-05)
(1.204402228e-05 4.579669977e-16 -1.290556426e-05)
(1.209253054e-05 4.53630189e-16 -1.290556538e-05)
(1.213917445e-05 4.497270611e-16 -1.290556646e-05)
(1.21821621e-05 4.462576142e-16 -1.290556745e-05)
(1.221984117e-05 4.427881672e-16 -1.290556832e-05)
(1.225076331e-05 4.40186082e-16 -1.290556904e-05)
(1.227374061e-05 4.380176777e-16 -1.290556957e-05)
(1.228788976e-05 4.369334755e-16 -1.290556989e-05)
(1.229266748e-05 4.365020793e-16 -1.290557e-05)
(1.228788976e-05 4.369334755e-16 -1.290556989e-05)
(1.227374061e-05 4.380176777e-16 -1.290556957e-05)
(1.225076331e-05 4.40186082e-16 -1.290556904e-05)
(1.221984117e-05 4.427881672e-16 -1.290556832e-05)
(1.21821621e-05 4.462576142e-16 -1.290556745e-05)
(1.213917445e-05 4.497270611e-16 -1.290556646e-05)
(1.209253054e-05 4.53630189e-16 -1.290556538e-05)
(1.204402228e-05 4.579669977e-16 -1.290556426e-05)
(1.199551403e-05 4.623038063e-16 -1.290556314e-05)
(1.194887012e-05 4.662069342e-16 -1.290556207e-05)
(1.190588247e-05 4.696763811e-16 -1.290556108e-05)
(1.18682034e-05 4.731458281e-16 -1.290556021e-05)
(1.183728126e-05 4.757479133e-16 -1.290555949e-05)
(1.181430396e-05 4.774826368e-16 -1.290555896e-05)
(1.18001548e-05 4.785668389e-16 -1.290555863e-05)
(1.327350936e-05 3.543192044e-16 -1.580955169e-05)
(1.327881349e-05 3.539920093e-16 -1.580955184e-05)
(1.329452161e-05 3.527993869e-16 -1.580955228e-05)
(1.332003056e-05 3.50847823e-16 -1.580955299e-05)
(1.335435972e-05 3.482457378e-16 -1.580955395e-05)
(1.339619029e-05 3.447762909e-16 -1.580955512e-05)
(1.344391433e-05 3.413068439e-16 -1.580955645e-05)
(1.34956975e-05 3.374037161e-16 -1.58095579e-05)
(1.354955041e-05 3.330669074e-16 -1.580955941e-05)
(1.360340333e-05 3.287300987e-16 -1.580956091e-05)
(1.365518649e-05 3.248269709e-16 -1.580956236e-05)
(1.370291054e-05 3.213575239e-16 -1.580956369e-05)
(1.374474111e-05 3.17888077e-16 -1.580956486e-05)
(1.377907027e-05 3.152859918e-16 -1.580956582e-05)
(1.380457922e-05 3.133344278e-16 -1.580956653e-05)
(1.382028733e-05 3.123586459e-16 -1.580956697e-05)
(1.382559146e-05 3.118306646e-16 -1.580956712e-05)
(1.382028733e-05 3.123586459e-16 -1.580956697e-05)
(1.380457922e-05 3.133344278e-16 -1.580956653e-05)
(1.377907027e-05 3.152859918e-16 -1.580956582e-05)
(1.374474111e-05 3.17888077e-16 -1.580956486e-05)
(1.370291054e-05 3.213575239e-16 -1.580956369e-05)
(1.365518649e-05 3.248269709e-16 -1.580956236e-05)
(1.360340333e-05 3.287300987e-16 -1.580956091e-05)
(1.354955041e-05 3.330669074e-16 -1.580955941e-05)
(1.34956975e-05 3.374037161e-16 -1.58095579e-05)
(1.344391433e-05 3.413068439e-16 -1.580955645e-05)
(1.339619029e-05 3.447762909e-16 -1.580955512e-05)
(1.335435972e-05 3.482457378e-16 -1.580955395e-05)
(1.332003056e-05 3.50847823e-16 -1.580955299e-05)
(1.329452161e-05 3.527993869e-16 -1.580955228e-05)
(1.327881349e-05 3.539920093e-16 -1.580955184e-05)
(1.475686861e-05 2.129338885e-16 -1.898798672e-05)
(1.476259892e-05 2.125036258e-16 -1.89879869e-05)
(1.477956916e-05 2.114194236e-16 -1.898798744e-05)
(1.480712772e-05 2.094678597e-16 -1.898798832e-05)
(1.484421517e-05 2.068657745e-16 -1.898798949e-05)
(1.488940677e-05 2.033963276e-16 -1.898799093e-05)
(1.494096537e-05 1.999268806e-16 -1.898799257e-05)
(1.499690923e-05 1.960237528e-16 -1.898799435e-05)
(1.505508915e-05 1.916869441e-16 -1.898799619e-05)
(1.511326907e-05 1.873501354e-16 -1.898799804e-05)
(1.516921293e-05 1.834470076e-16 -1.898799982e-05)
(1.522077154e-05 1.799775606e-16 -1.898800146e-05)
(1.526596313e-05 1.765081137e-16 -1.898800289e-05)
(1.530305058e-05 1.739060285e-16 -1.898800407e-05)
(1.533060914e-05 1.719544646e-16 -1.898800495e-05)
(1.534757938e-05 1.708702624e-16 -1.898800549e-05)
(1.535330969e-05 1.704452376e-16 -1.898800567e-05)
(1.534757938e-05 1.708702624e-16 -1.898800549e-05)
(1.533060914e-05 1.719544646e-16 -1.898800495e-05)
(1.530305058e-05 1.739060285e-16 -1.898800407e-05)
(1.526596313e-05 1.765081137e-16 -1.898800289e-05)
(1.522077154e-05 1.799775606e-16 -1.898800146e-05)
(1.516921293e-05 1.834470076e-16 -1.898799982e-05)
(1.511326907e-05 1.873501354e-16 -1.898799804e-05)
(1.505508915e-05 1.916869441e-16 -1.898799619e-05)
(1.499690923e-05 1.960237528e-16 -1.898799435e-05)
(1.494096537e-05 1.999268806e-16 -1.898799257e-05)
(1.488940677e-05 2.033963276e-16 -1.898799093e-05)
(1.484421517e-05 2.068657745e-16 -1.898798949e-05)
(1.480712772e-05 2.094678597e-16 -1.898798832e-05)
(1.477956916e-05 2.114194236e-16 -1.898798744e-05)
(1.476259892e-05 2.125036258e-16 -1.89879869e-05)
(1.62484672e-05 5.526389163e-17 -2.236649817e-05)
(1.625446571e-05 5.486062993e-17 -2.236649837e-05)
(1.627223021e-05 5.377642776e-17 -2.236649898e-05)
(1.630107861e-05 5.160802341e-17 -2.236649997e-05)
(1.633990188e-05 4.90059382e-17 -2.23665013e-05)
(1.63872086e-05 4.553649124e-17 -2.236650292e-05)
(1.644118033e-05 4.206704429e-17 -2.236650477e-05)
(1.649974256e-05 3.816391647e-17 -2.236650678e-05)
(1.656064551e-05 3.382710778e-17 -2.236650887e-05)
(1.662154845e-05 2.949029909e-17 -2.236651095e-05)
(1.668011068e-05 2.558717127e-17 -2.236651296e-05)
(1.673408241e-05 2.211772432e-17 -2.236651481e-05)
(1.678138913e-05 1.864827737e-17 -2.236651643e-05)
(1.68202124e-05 1.604619215e-17 -2.236651776e-05)
(1.68490608e-05 1.431146868e-17 -2.236651875e-05)
(1.686682531e-05 1.32272665e-17 -2.236651936e-05)
(1.687282381e-05 1.277517561e-17 -2.236651956e-05)
(1.686682531e-05 1.32272665e-17 -2.236651936e-05)
(1.68490608e-05 1.431146868e-17 -2.236651875e-05)
(1.68202124e-05 1.604619215e-17 -2.236651776e-05)
(1.678138913e-05 1.864827737e-17 -2.236651643e-05)
(1.673408241e-05 2.211772432e-17 -2.236651481e-05)
(1.668011068e-05 2.558717127e-17 -2.236651296e-05)
(1.662154845e-05 2.949029909e-17 -2.236651095e-05)
(1.656064551e-05 3.382710778e-17 -2.236650887e-05)
(1.649974256e-05 3.816391647e-17 -2.236650678e-05)
(1.644118033e-05 4.206704429e-17 -2.236650477e-05)
(1.63872086e-05 4.553649124e-17 -2.236650292e-05)
(1.633990188e-05 4.90059382e-17 -2.23665013e-05)
(1.630107861e-05 5.160802341e-17 -2.236649997e-05)
(1.627223021e-05 5.377642776e-17 -2.236649898e-05)
(1.625446571e-05 5.486062993e-17 -2.236649837e-05)
(1.775166812e-05 -1.172504961e-16 -2.583553338e-05)
(1.775771243e-05 -1.176359357e-16 -2.583553359e-05)
(1.777561259e-05 -1.188285581e-16 -2.583553422e-05)
(1.780468127e-05 -1.205632816e-16 -2.583553524e-05)
(1.7843801e-05 -1.231653668e-16 -2.583553661e-05)
(1.789146895e-05 -1.266348137e-16 -2.583553828e-05)
(1.794585281e-05 -1.301042607e-16 -2.583554019e-05)
(1.800486222e-05 -1.335737077e-16 -2.583554226e-05)
(1.806623022e-05 -1.379105163e-16 -2.583554442e-05)
(1.812759821e-05 -1.42247325e-16 -2.583554657e-05)
(1.818660762e-05 -1.465841337e-16 -2.583554864e-05)
(1.824099148e-05 -1.500535807e-16 -2.583555055e-05)
(1.828865943e-05 -1.535230276e-16 -2.583555222e-05)
(1.832777916e-05 -1.561251128e-16 -2.583555359e-05)
(1.835684784e-05 -1.582935172e-16 -2.583555461e-05)
(1.8374748e-05 -1.592692991e-16 -2.583555524e-05)
(1.838079231e-05 -1.597391922e-16 -2.583555545e-05)
(1.8374748e-05 -1.592692991e-16 -2.583555524e-05)
(1.835684784e-05 -1.582935172e-16 -2.583555461e-05)
(1.832777916e-05 -1.561251128e-16 -2.583555359e-05)
(1.828865943e-05 -1.535230276e-16 -2.583555222e-05)
(1.824099148e-05 -1.500535807e-16 -2.583555055e-05)
(1.818660762e-05 -1.465841337e-16 -2.583554864e-05)
(1.812759821e-05 -1.42247325e-16 -2.583554657e-05)
(1.806623022e-05 -1.379105163e-16 -2.583554442e-05)
(1.800486222e-05 -1.335737077e-16 -2.583554226e-05)
(1.794585281e-05 -1.301042607e-16 -2.583554019e-05)
(1.789146895e-05 -1.266348137e-16 -2.583553828e-05)
(1.7843801e-05 -1.231653668e-16 -2.583553661e-05)
(1.780468127e-05 -1.205632816e-16 -2.583553524e-05)
(1.777561259e-05 -1.188285581e-16 -2.583553422e-05)
(1.775771243e-05 -1.176359357e-16 -2.583553359e-05)
(1.927015037e-05 -3.01962055e-16 -2.924670297e-05)
(1.927594768e-05 -3.023839859e-16 -2.924670316e-05)
(1.929311633e-05 -3.033597679e-16 -2.924670374e-05)
(1.93209971e-05 -3.053113318e-16 -2.924670468e-05)
(1.935851816e-05 -3.07913417e-16 -2.924670595e-05)
(1.940423812e-05 -3.113828639e-16 -2.92467075e-05)
(1.945639953e-05 -3.148523109e-16 -2.924670926e-05)
(1.951299747e-05 -3.191891196e-16 -2.924671117e-05)
(1.957185761e-05 -3.235259283e-16 -2.924671316e-05)
(1.963071775e-05 -3.27862737e-16 -2.924671515e-05)
(1.968731569e-05 -3.313321839e-16 -2.924671706e-05)
(1.97394771e-05 -3.348016309e-16 -2.924671882e-05)
(1.978519706e-05 -3.382710778e-16 -2.924672036e-05)
(1.982271813e-05 -3.40873163e-16 -2.924672163e-05)
(1.98505989e-05 -3.428247269e-16 -2.924672257e-05)
(1.986776755e-05 -3.440173493e-16 -2.924672315e-05)
(1.987356485e-05 -3.444506006e-16 -2.924672335e-05)
(1.986776755e-05 -3.440173493e-16 -2.924672315e-05)
(1.98505989e-05 -3.428247269e-16 -2.924672257e-05)
(1.982271813e-05 -3.40873163e-16 -2.924672163e-05)
(1.978519706e-05 -3.382710778e-16 -2.924672036e-05)
(1.97394771e-05 -3.348016309e-16 -2.924671882e-05)
(1.968731569e-05 -3.313321839e-16 -2.924671706e-05)
(1.963071775e-05 -3.27862737e-16 -2.924671515e-05)
(1.957185761e-05 -3.235259283e-16 -2.924671316e-05)
(1.951299747e-05 -3.191891196e-16 -2.924671117e-05)
(1.945639953e-05 -3.148523109e-16 -2.924670926e-05)
(1.940423812e-05 -3.113828639e-16 -2.92467075e-05)
(1.935851816e-05 -3.07913417e-16 -2.924670595e-05)
(1.93209971e-05 -3.053113318e-16 -2.924670468e-05)
(1.929311633e-05 -3.033597679e-16 -2.924670374e-05)
(1.927594768e-05 -3.023839859e-16 -2.924670316e-05)
(2.080784421e-05 -4.948012322e-16 -3.240967332e-05)
(2.08130265e-05 -4.952635524e-16 -3.240967348e-05)
(2.082837378e-05 -4.961309141e-16 -3.240967393e-05)
(2.085329677e-05 -4.982993185e-16 -3.240967468e-05)
(2.088683736e-05 -5.009014037e-16 -3.240967568e-05)
(2.092770704e-05 -5.043708506e-16 -3.240967689e-05)
(2.097433482e-05 -5.078402976e-16 -3.240967828e-05)
(2.102492848e-05 -5.117434254e-16 -3.240967979e-05)
(2.107754434e-05 -5.160802341e-16 -3.240968136e-05)
(2.113016021e-05 -5.204170428e-16 -3.240968293e-05)
(2.118075386e-05 -5.243201706e-16 -3.240968444e-05)
(2.122738164e-05 -5.277896176e-16 -3.240968583e-05)
(2.126825133e-05 -5.312590645e-16 -3.240968705e-05)
(2.130179191e-05 -5.338611497e-16 -3.240968805e-05)
(2.13267149e-05 -5.355958732e-16 -3.240968879e-05)
(2.134206219e-05 -5.368969158e-16 -3.240968925e-05)
(2.134724447e-05 -5.372894498e-16 -3.24096894e-05)
(2.134206219e-05 -5.368969158e-16 -3.240968925e-05)
(2.13267149e-05 -5.355958732e-16 -3.240968879e-05)
(2.130179191e-05 -5.338611497e-16 -3.240968805e-05)
(2.126825133e-05 -5.312590645e-16 -3.240968705e-05)
(2.122738164e-05 -5.277896176e-16 -3.240968583e-05)
(2.118075386e-05 -5.243201706e-16 -3.240968444e-05)
(2.113016021e-05 -5.204170428e-16 -3.240968293e-05)
(2.107754434e-05 -5.160802341e-16 -3.240968136e-05)
(2.102492848e-05 -5.117434254e-16 -3.240967979e-05)
(2.097433482e-05 -5.078402976e-16 -3.240967828e-05)
(2.092770704e-05 -5.043708506e-16 -3.240967689e-05)
(2.088683736e-05 -5.009014037e-16 -3.240967568e-05)
(2.085329677e-05 -4.982993185e-16 -3.240967468e-05)
(2.082837378e-05 -4.961309141e-16 -3.240967393e-05)
(2.08130265e-05 -4.952635524e-16 -3.240967348e-05)
(2.236884359e-05 -6.90063652e-16 -3.508987822e-05)
(2.237296449e-05 -6.905283637e-16 -3.508987831e-05)
(2.23851685e-05 -6.915041456e-16 -3.508987858e-05)
(2.2404987e-05 -6.938893904e-16 -3.508987903e-05)
(2.243165813e-05 -6.964914756e-16 -3.508987963e-05)
(2.246415729e-05 -6.999609226e-16 -3.508988036e-05)
(2.250123522e-05 -7.034303695e-16 -3.50898812e-05)
(2.254146678e-05 -7.068998165e-16 -3.50898821e-05)
(2.258330638e-05 -7.112366252e-16 -3.508988304e-05)
(2.262514598e-05 -7.155734338e-16 -3.508988398e-05)
(2.266537754e-05 -7.199102425e-16 -3.508988489e-05)
(2.270245548e-05 -7.233796895e-16 -3.508988572e-05)
(2.273495464e-05 -7.268491364e-16 -3.508988645e-05)
(2.276162577e-05 -7.294512216e-16 -3.508988705e-05)
(2.278144427e-05 -7.309691047e-16 -3.50898875e-05)
(2.279364828e-05 -7.321617271e-16 -3.508988777e-05)
(2.279776918e-05 -7.325512462e-16 -3.508988787e-05)
(2.279364828e-05 -7.321617271e-16 -3.508988777e-05)
(2.278144427e-05 -7.309691047e-16 -3.50898875e-05)
(2.276162577e-05 -7.294512216e-16 -3.508988705e-05)
(2.273495464e-05 -7.268491364e-16 -3.508988645e-05)
(2.270245548e-05 -7.233796895e-16 -3.508988572e-05)
(2.266537754e-05 -7.199102425e-16 -3.508988489e-05)
(2.262514598e-05 -7.155734338e-16 -3.508988398e-05)
(2.258330638e-05 -7.112366252e-16 -3.508988304e-05)
(2.254146678e-05 -7.068998165e-16 -3.50898821e-05)
(2.250123522e-05 -7.034303695e-16 -3.50898812e-05)
(2.246415729e-05 -6.999609226e-16 -3.508988036e-05)
(2.243165813e-05 -6.964914756e-16 -3.508987963e-05)
(2.2404987e-05 -6.938893904e-16 -3.508987903e-05)
(2.23851685e-05 -6.915041456e-16 -3.508987858e-05)
(2.237296449e-05 -6.905283637e-16 -3.508987831e-05)
(2.395728014e-05 -8.802060509e-16 -3.700736708e-05)
(2.395981409e-05 -8.805890045e-16 -3.70073671e-05)
(2.396731836e-05 -8.816732067e-16 -3.700736718e-05)
(2.397950481e-05 -8.83841611e-16 -3.700736731e-05)
(2.399590495e-05 -8.864436962e-16 -3.700736748e-05)
(2.401588876e-05 -8.899131432e-16 -3.700736769e-05)
(2.403868808e-05 -8.933825901e-16 -3.700736792e-05)
(2.406342656e-05 -8.977193988e-16 -3.700736818e-05)
(2.408915384e-05 -9.020562075e-16 -3.700736845e-05)
(2.411488111e-05 -9.063930162e-16 -3.700736871e-05)
(2.413961959e-05 -9.098624631e-16 -3.700736897e-05)
(2.416241891e-05 -9.133319101e-16 -3.700736921e-05)
(2.418240272e-05 -9.168013571e-16 -3.700736941e-05)
(2.419880286e-05 -9.194034423e-16 -3.700736958e-05)
(2.421098931e-05 -9.211381657e-16 -3.700736971e-05)
(2.421849358e-05 -9.222223679e-16 -3.700736979e-05)
(2.422102753e-05 -9.226928702e-16 -3.700736982e-05)
(2.421849358e-05 -9.222223679e-16 -3.700736979e-05)
(2.421098931e-05 -9.211381657e-16 -3.700736971e-05)
(2.419880286e-05 -9.194034423e-16 -3.700736958e-05)
(2.418240272e-05 -9.168013571e-16 -3.700736941e-05)
(2.416241891e-05 -9.133319101e-16 -3.700736921e-05)
(2.413961959e-05 -9.098624631e-16 -3.700736897e-05)
(2.411488111e-05 -9.063930162e-16 -3.700736871e-05)
(2.408915384e-05 -9.020562075e-16 -3.700736845e-05)
(2.406342656e-05 -8.977193988e-16 -3.700736818e-05)
(2.403868808e-05 -8.933825901e-16 -3.700736792e-05)
(2.401588876e-05 -8.899131432e-16 -3.700736769e-05)
(2.399590495e-05 -8.864436962e-16 -3.700736748e-05)
(2.397950481e-05 -8.83841611e-16 -3.700736731e-05)
(2.396731836e-05 -8.816732067e-16 -3.700736718e-05)
(2.395981409e-05 -8.805890045e-16 -3.70073671e-05)
(2.55771652e-05 -1.055667567e-15 -3.783715211e-05)
(2.557750949e-05 -1.056121336e-15 -3.78371521e-05)
(2.55785291e-05 -1.057313959e-15 -3.783715206e-05)
(2.558018488e-05 -1.059048682e-15 -3.7837152e-05)
(2.558241317e-05 -1.061650767e-15 -3.783715192e-05)
(2.558512839e-05 -1.065120214e-15 -3.783715182e-05)
(2.558822615e-05 -1.068589661e-15 -3.783715171e-05)
(2.559158738e-05 -1.07292647e-15 -3.783715158e-05)
(2.559508296e-05 -1.077263279e-15 -3.783715146e-05)
(2.559857854e-05 -1.081600087e-15 -3.783715133e-05)
(2.560193978e-05 -1.085069534e-15 -3.783715121e-05)
(2.560503754e-05 -1.088538981e-15 -3.783715109e-05)
(2.560775275e-05 -1.092008428e-15 -3.783715099e-05)
(2.560998105e-05 -1.094610513e-15 -3.783715091e-05)
(2.561163683e-05 -1.096778918e-15 -3.783715085e-05)
(2.561265644e-05 -1.0977547e-15 -3.783715081e-05)
(2.561300073e-05 -1.098153406e-15 -3.78371508e-05)
(2.561265644e-05 -1.0977547e-15 -3.783715081e-05)
(2.561163683e-05 -1.096778918e-15 -3.783715085e-05)
(2.560998105e-05 -1.094610513e-15 -3.783715091e-05)
(2.560775275e-05 -1.092008428e-15 -3.783715099e-05)
(2.560503754e-05 -1.088538981e-15 -3.783715109e-05)
(2.560193978e-05 -1.085069534e-15 -3.783715121e-05)
(2.559857854e-05 -1.081600087e-15 -3.783715133e-05)
(2.559508296e-05 -1.077263279e-15 -3.783715146e-05)
(2.559158738e-05 -1.07292647e-15 -3.783715158e-05)