/*--------------------------------*- C++ -*----------------------------------*\
| =========                 |                                                 |
| \\      /  F ield         | OpenFOAM: The Open Source CFD Toolbox           |
|  \\    /   O peration     | Version:  2312                                  |
|   \\  /    A nd           | Website:  www.openfoam.com                      |
|    \\/     M anipulation  |                                                 |
\*---------------------------------------------------------------------------*/
FoamFile
{
    version     2.0;
    format      ascii;
    arch        "LSB;label=32;scalar=64";
    class       surfaceVectorField;
    location    "0.06/beam";
    object      Q;
}
// * * * * * * * * * * * * * * * * * * * * * * * * * * * * * * * * * * * * * //

dimensions      [1 1 -2 0 0 0 0];

oriented        oriented;

internalField   nonuniform List<vector> 
59
(
(0.005127696105 1.272321085e-17 3.856733798e-07)
(0.00512771169 1.194149979e-17 3.435495969e-07)
(0.005127737665 1.05855331e-17 2.730654515e-07)
(0.005127774029 8.579489352e-18 1.738986378e-07)
(0.005127820783 5.824467565e-18 4.578447163e-08)
(0.005127877926 2.205857863e-18 -1.113031966e-07)
(0.005127945457 -2.397587817e-18 -2.969276811e-07)
(0.005128023378 -8.102533494e-18 -5.099284311e-07)
(0.005128111687 -1.500810231e-17 -7.481318274e-07)
(0.005128210384 -2.318250599e-17 -1.008044439e-06)
(0.005128319469 -3.264844171e-17 -1.284541592e-06)
(0.005128438942 -4.336783198e-17 -1.570566392e-06)
(0.005128568804 -5.522612867e-17 -1.856856642e-06)
(0.005128709056 -6.801643081e-17 -2.131719191e-06)
(0.005128859698 -8.142374444e-17 -2.380873138e-06)
(0.005129020731 -9.500984564e-17 -2.587384601e-06)
(0.005129192157 -1.081994109e-16 -2.731716482e-06)
(0.005129373975 -1.202683029e-16 -2.791916375e-06)
(0.005129566184 -1.303351666e-16 -2.74396443e-06)
(0.005129768779 -1.37357725e-16 -2.562300295e-06)
(0.005129981754 -1.401354507e-16 -2.220544091e-06)
(0.005130205094 -1.373203949e-16 -1.692420563e-06)
(0.005130438753 -1.274396031e-16 -9.529835109e-07)
(0.005130682785 -1.089203176e-16 2.053518529e-08)
(0.005130937044 -8.015569479e-17 1.246112134e-06)
(0.005131201603 -3.953239188e-17 2.736997272e-06)
(0.005131476294 1.443877906e-17 4.497732863e-06)
(0.00513176119 8.310233709e-17 6.525039299e-06)
(0.005132056116 1.674493012e-16 8.802844899e-06)
(0.005132361169 2.681163384e-16 1.130425289e-05)
(0.005132676195 3.850956822e-16 1.39859419e-05)
(0.005133001346 5.177715549e-16 1.67914619e-05)
(0.005133336524 6.645607558e-16 1.964560389e-05)
(0.005133681969 8.230071636e-16 2.245911908e-05)
(0.005134037654 9.893850774e-16 2.51238737e-05)
(0.005134403898 1.158872714e-15 2.751882242e-05)
(0.005134780705 1.325174563e-15 2.950691247e-05)
(0.005135168382 1.480788717e-15 3.094177054e-05)
(0.005135566814 1.616728349e-15 3.166735177e-05)
(0.005135976085 1.722883201e-15 3.152434767e-05)
(0.005136395677 1.787938826e-15 3.035345568e-05)
(0.005136825107 1.799807721e-15 2.800004559e-05)
(0.005137263073 1.745851119e-15 2.432164841e-05)
(0.005137708125 1.613319438e-15 1.918902432e-05)
(0.005138157796 1.389967426e-15 1.249807055e-05)
(0.005138609354 1.064398429e-15 4.165232061e-06)
(0.00513905898 6.271228273e-16 -5.856413984e-06)
(0.005139502621 7.065069753e-17 -1.758935347e-05)
(0.005139935277 -6.09027648e-16 -3.10119857e-05)
(0.005140351953 -1.412802732e-15 -4.607986424e-05)
(0.005140747074 -2.336663699e-15 -6.270325998e-05)
(0.005141115469 -3.372747792e-15 -8.077796285e-05)
(0.005141451889 -4.507493987e-15 -0.0001001606954)
(0.005141751897 -5.723622504e-15 -0.0001207087419)
(0.005142011426 -6.998577869e-15 -0.000142253371)
(0.005142227426 -8.30765337e-15 -0.0001646462008)
(0.005142397423 -9.623166071e-15 -0.0001877300483)
(0.005142519849 -1.091888261e-14 -0.0002113887981)
(0.005142593623 -1.217040132e-14 -0.0002355142892)
)
;

boundaryField
{
    left
    {
        type            calculated;
        value           uniform (-0.005127690917 -6.811802928e-12 -3.996909512e-07);
    }
    right
    {
        type            calculated;
        value           uniform (0.005142618232 -6.824381742e-12 -0.0002600559093);
    }
    beam
    {
        type            empty;
        value           nonuniform List<vector> 0();
    }
}


// ************************************************************************* //
