/*--------------------------------*- C++ -*----------------------------------*\
| =========                 |                                                 |
| \\      /  F ield         | OpenFOAM: The Open Source CFD Toolbox           |
|  \\    /   O peration     | Version:  2312                                  |
|   \\  /    A nd           | Website:  www.openfoam.com                      |
|    \\/     M anipulation  |                                                 |
\*---------------------------------------------------------------------------*/
FoamFile
{
    version     2.0;
    format      ascii;
    arch        "LSB;label=32;scalar=64";
    class       volVectorField;
    location    "0.06/beam";
    object      Theta;
}
// * * * * * * * * * * * * * * * * * * * * * * * * * * * * * * * * * * * * * //

dimensions      [0 0 0 0 0 0 0];

internalField   nonuniform List<vector> 
60
(
(-3.48413857e-16 -2.169068439e-05 -9.566522003e-20)
(-3.484096534e-16 -1.77647039e-05 6.171452623e-18)
(-3.484096802e-16 -1.363861877e-05 1.611785442e-17)
(-3.484112161e-16 -7.251349763e-06 2.618307911e-17)
(-3.484150911e-16 -1.131700095e-07 3.064517821e-17)
(-3.484208458e-16 8.288255576e-06 2.210446505e-17)
(-3.484278642e-16 1.713278356e-05 -7.303268748e-18)
(-3.484356416e-16 2.62673145e-05 -6.847132874e-17)
(-3.484433021e-16 3.50014848e-05 -1.705810649e-16)
(-3.484502831e-16 4.282224011e-05 -3.256190648e-16)
(-3.484560689e-16 4.896322921e-05 -5.433652954e-16)
(-3.484606989e-16 5.266412472e-05 -8.331895477e-16)
(-3.484650365e-16 5.302332243e-05 -1.203053953e-15)
(-3.484711665e-16 4.910189659e-05 -1.658532236e-15)
(-3.484827557e-16 3.988676978e-05 -2.202122842e-15)
(-3.485053456e-16 2.434922881e-05 -2.832334949e-15)
(-3.485464531e-16 1.458820499e-06 -3.542773871e-15)
(-3.486154196e-16 -2.976253694e-05 -4.32143493e-15)
(-3.487228543e-16 -7.019633775e-05 -5.149745425e-15)
(-3.488796068e-16 -0.0001205629963 -6.001930434e-15)
(-3.490952259e-16 -0.0001813555646 -6.844968244e-15)
(-3.493759754e-16 -0.0002527617314 -7.637051373e-15)
(-3.497221974e-16 -0.0003345770686 -8.330145483e-15)
(-3.50125748e-16 -0.000426136552 -8.867911662e-15)
(-3.505676284e-16 -0.0005261982298 -9.190223967e-15)
(-3.510158248e-16 -0.0006328736288 -9.229262485e-15)
(-3.514259047e-16 -0.0007435410117 -8.92276723e-15)
(-3.517424372e-16 -0.0008547723732 -8.198189551e-15)
(-3.519059386e-16 -0.0009622740295 -7.009299379e-15)
(-3.518631983e-16 -0.001060846259 -5.285347911e-15)
(-3.516447372e-16 -0.001144366309 -2.972253591e-15)
(-3.511517413e-16 -0.001205800432 -1.2441373e-16)
(-3.505387159e-16 -0.001237248748 3.265075662e-15)
(-3.500171796e-16 -0.001230027766 7.172476028e-15)
(-3.499527569e-16 -0.001174793047 1.150250288e-14)
(-3.50900266e-16 -0.001061704734 1.613950613e-14)
(-3.536262422e-16 -0.0008806363091 2.091169881e-14)
(-3.5910425e-16 -0.000621426037 2.560997454e-14)
(-3.684652466e-16 -0.0002741687416 2.997727705e-14)
(-3.828766222e-16 0.000170456904 3.37196947e-14)
(-4.033298161e-16 0.0007208303842 3.650891432e-14)
(-4.302925529e-16 0.00138401045 3.799541141e-14)
(-4.632274814e-16 0.002165341127 3.781952478e-14)
(-4.999146361e-16 0.003068058073 3.562962285e-14)
(-5.356498019e-16 0.004092897905 3.110058835e-14)
(-5.622538705e-16 0.005237734139 2.395539108e-14)
(-5.671158533e-16 0.006497229293 1.398766725e-14)
(-5.322242348e-16 0.007862544495 1.084105938e-15)
(-4.336834332e-16 0.009321059228 -1.475482061e-14)
(-2.416915607e-16 0.01085619153 -3.33971321e-14)
(7.815002458e-17 0.01244717319 -5.456679057e-14)
(5.622600451e-16 0.01406901295 -7.78377063e-14)
(1.24406532e-15 0.01569223969 -1.026358945e-13)
(2.146959129e-15 0.01728306996 -1.28250614e-13)
(3.274286185e-15 0.01880287626 -1.53855633e-13)
(4.597993252e-15 0.02020876751 -1.785338855e-13)
(6.046515354e-15 0.02145218095 -2.013171971e-13)
(7.496543157e-15 0.02248057765 -2.212177683e-13)
(8.773499651e-15 0.02323364058 -2.372590796e-13)
(9.670585186e-15 0.02364824727 -2.484904334e-13)
)
;

boundaryField
{
    left
    {
        type            momentBeamRotationNR;
        value           uniform (-3.48413857e-16 -2.169068439e-05 -9.566522003e-20);
        momentSeries    
{
        file            "$FOAM_CASE/constant/beam/timeVsMoment";
        outOfBounds     clamp;
}
        moment          uniform (0 0 0);
    }
    right
    {
        type            momentBeamRotationNR;
        value           uniform (9.670585186e-15 0.02364824727 -2.484904334e-13);
        momentSeries    
{
        file            "$FOAM_CASE/constant/beam/timeVsMoment";
        outOfBounds     clamp;
}
        moment          uniform (0 0 0);
    }
    beam
    {
        type            empty;
    }
}


// ************************************************************************* //
