/*--------------------------------*- C++ -*----------------------------------*\
| =========                 |                                                 |
| \\      /  F ield         | OpenFOAM: The Open Source CFD Toolbox           |
|  \\    /   O peration     | Version:  2312                                  |
|   \\  /    A nd           | Website:  www.openfoam.com                      |
|    \\/     M anipulation  |                                                 |
\*---------------------------------------------------------------------------*/
FoamFile
{
    version     2.0;
    format      ascii;
    arch        "LSB;label=32;scalar=64";
    class       volVectorField;
    location    "0.06/beam";
    object      W;
}
// * * * * * * * * * * * * * * * * * * * * * * * * * * * * * * * * * * * * * //

dimensions      [0 1 0 0 0 0 0];

internalField   nonuniform List<vector> 
60
(
(7.527418028e-07 9.791616738e-16 -4.675852869e-07)
(2.258228295e-06 9.362120313e-16 -1.438958785e-06)
(3.763719786e-06 8.89453758e-16 -2.517518168e-06)
(5.269216647e-06 8.363916386e-16 -3.769947446e-06)
(6.774719487e-06 7.746326813e-16 -5.255643192e-06)
(8.280227945e-06 7.019271232e-16 -7.023563384e-06)
(9.785741634e-06 6.162557845e-16 -9.108878587e-06)
(1.129126021e-05 5.159075613e-16 -1.152939364e-05)
(1.279678435e-05 3.995850898e-16 -1.428173489e-05)
(1.430231648e-05 2.665647792e-16 -1.733738392e-05)
(1.580786183e-05 1.168143469e-16 -2.063860847e-05)
(1.731342919e-05 -4.877527968e-17 -2.409440926e-05)
(1.881903124e-05 -2.282144086e-16 -2.757667957e-05)
(2.032468398e-05 -4.18198247e-16 -3.091674675e-05)
(2.18304047e-05 -6.13892435e-16 -3.390261598e-05)
(2.333620807e-05 -8.087224632e-16 -3.627715011e-05)
(2.48420996e-05 -9.941764579e-16 -3.773758679e-05)
(2.634806632e-05 -1.159644516e-15 -3.793671613e-05)
(2.785406421e-05 -1.29230383e-15 -3.648614215e-05)
(2.936000305e-05 -1.377068522e-15 -3.296200399e-05)
(3.086572941e-05 -1.396636787e-15 -2.69135702e-05)
(3.237100968e-05 -1.331640312e-15 -1.787503611e-05)
(3.387543103e-05 -1.160945445e-15 -5.381554298e-06)
(3.537873381e-05 -8.621036111e-16 1.101404989e-05)
(3.688030485e-05 -4.119802107e-16 3.171589361e-05)
(3.837953862e-05 2.122995698e-16 5.70576687e-05)
(3.987579152e-05 1.03239301e-15 8.727531044e-05)
(4.13684504e-05 2.067226613e-15 0.0001224686435)
(4.285702162e-05 3.331570198e-15 0.0001625687796)
(4.434124942e-05 4.833979541e-15 0.0002072944744)
(4.582124103e-05 6.576074296e-15 0.0002561158856)
(4.729759643e-05 8.547658144e-15 0.0003082100891)
(4.877150235e-05 1.072442387e-14 0.0003624249932)
(5.02447681e-05 1.30674752e-14 0.0004172404534)
(5.171974853e-05 1.551965593e-14 0.0004707374325)
(5.319910617e-05 1.80028295e-14 0.0005205728128)
(5.468535918e-05 2.041552271e-14 0.0005639597307)
(5.618014973e-05 2.26308516e-14 0.0005976651154)
(5.768320744e-05 2.449477111e-14 0.0006180071913)
(5.919095736e-05 2.58253469e-14 0.0006208845981)
(6.069480064e-05 2.64121787e-14 0.0006017961423)
(6.217909655e-05 2.601780792e-14 0.000555908793)
(6.361892582e-05 2.437891336e-14 0.0004781027762)
(6.497784138e-05 2.121060803e-14 0.0003630828206)
(6.620567183e-05 1.620991948e-14 0.000205448914)
(6.723688668e-05 9.06356701e-15 -1.488804549e-07)
(6.798940869e-05 -5.460084384e-16 -0.0002589168292)
(6.836482325e-05 -1.292917802e-14 -0.000575723208)
(6.824941831e-05 -2.838064141e-14 -0.0009549872544)
(6.751757263e-05 -4.716463261e-14 -0.001400453251)
(6.603613679e-05 -6.950456572e-14 -0.001915068379)
(6.367197799e-05 -9.556592446e-14 -0.002500735124)
(6.03002363e-05 -1.254451265e-13 -0.003158182615)
(5.581611033e-05 -1.591517444e-13 -0.003886706438)
(5.014647864e-05 -1.965980338e-13 -0.004684032692)
(4.326463719e-05 -2.375824615e-13 -0.005546049797)
(3.520335e-05 -2.817812023e-13 -0.00646665538)
(2.606946297e-05 -3.287349098e-13 -0.00743747662)
(1.605460191e-05 -3.778426982e-13 -0.008447677567)
(5.444192706e-06 -4.283526688e-13 -0.009483654013)
)
;

boundaryField
{
    left
    {
        type            fixedValue;
        value           uniform (0 0 0);
    }
    right
    {
        type            fixedValue;
        value           uniform (3.111671854e-08 -4.548576952e-13 -0.01000626793);
    }
    beam
    {
        type            empty;
    }
}


// ************************************************************************* //
