/*--------------------------------*- C++ -*----------------------------------*\
| =========                 |                                                 |
| \\      /  F ield         | foam-extend: Open Source CFD                    |
|  \\    /   O peration     | Version:     4.1                                |
|   \\  /    A nd           | Web:         http://www.foam-extend.org         |
|    \\/     M anipulation  |                                                 |
\*---------------------------------------------------------------------------*/
FoamFile
{
    version     2.0;
    format      ascii;
    class       surfaceVectorField;
    location    "0";
    object      refWf;
}
// * * * * * * * * * * * * * * * * * * * * * * * * * * * * * * * * * * * * * //

dimensions      [0 1 0 0 0 0 0];

internalField   nonuniform List<vector> 
38
(
(0 0 0)
(0 0 0)
(0 0 0)
(0 0 0)
(0 0 0)
(0 0 0)
(0 0 0)
(0 0 0)
(0 0 0)
(0 0 0)
(0 0 0)
(0 0 0)
(0 0 0)
(0 0 0)
(0 0 0)
(0 0 0)
(0 0 0)
(0 0 0)
(0 0 0)
(0.225 0.01 0.225)
(0.2 0.01 0.2)
(0.175 0.01 0.175)
(0.15 0.01 0.15)
(0.125 0.01 0.125)
(0.1 0.01 0.1)
(0.075 0.01 0.075)
(0.05 0.01 0.05)
(0.025 0.01 0.025)
(8.32667e-17 0.01 8.29841e-17)
(-0.025 0.01 -0.025)
(-0.05 0.01 -0.05)
(-0.075 0.01 -0.075)
(-0.1 0.01 -0.1)
(-0.125 0.01 -0.125)
(-0.15 0.01 -0.15)
(-0.175 0.01 -0.175)
(-0.2 0.01 -0.2)
(-0.225 0.01 -0.225)
)
;

boundaryField
{
    left_0
    {
        type            calculated;
        value           uniform (0 0 0);
    }
    left_1
    {
        type            calculated;
        value           uniform (0.25 0.01 0.25);
    }
    right_0
    {
        type            calculated;
        value           uniform (0 0 0);
    }
    right_1
    {
        type            calculated;
        value           uniform (-0.25 0.01 -0.25);
    }
    beam
    {
        type            empty;
    }
}


// ************************************************************************* //
