/*--------------------------------*- C++ -*----------------------------------*\
| =========                 |                                                 |
| \\      /  F ield         | foam-extend: Open Source CFD                    |
|  \\    /   O peration     | Version:     4.1                                |
|   \\  /    A nd           | Web:         http://www.foam-extend.org         |
|    \\/     M anipulation  |                                                 |
\*---------------------------------------------------------------------------*/
FoamFile
{
    version     2.0;
    format      ascii;
    class       surfaceTensorField;
    location    "0";
    object      refLambda;
}
// * * * * * * * * * * * * * * * * * * * * * * * * * * * * * * * * * * * * * //

dimensions      [0 0 0 0 0 0 0];

internalField   nonuniform List<tensor> 
799
(
(0.157177 2.06165e-17 -0.98757 -0.0767636 0.996974 -0.0122173 0.984583 0.0777297 0.156701)
(0.157177 4.76573e-17 -0.98757 -0.153063 0.987916 -0.0243607 0.975637 0.154989 0.155277)
(0.157177 -3.30182e-17 -0.98757 -0.228435 0.97288 -0.0363566 0.960788 0.23131 0.152914)
(0.157177 6.8138e-17 -0.98757 -0.302426 0.951957 -0.0481326 0.940124 0.306232 0.149625)
(0.157177 5.41986e-17 -0.98757 -0.374587 0.925273 -0.0596174 0.913772 0.379302 0.145431)
(0.157177 -6.16738e-17 -0.98757 -0.444481 0.892991 -0.0707413 0.881891 0.450075 0.140357)
(0.157177 -8.519e-17 -0.98757 -0.511685 0.855305 -0.0814371 0.844674 0.518125 0.134434)
(0.157177 -7.41341e-17 -0.98757 -0.575793 0.812443 -0.0916403 0.802345 0.58304 0.127697)
(0.157177 -1.14782e-16 -0.98757 -0.636417 0.764666 -0.101289 0.755162 0.644427 0.120188)
(0.157177 -6.58771e-17 -0.98757 -0.69319 0.712261 -0.110325 0.703408 0.701915 0.111951)
(0.157177 1.51694e-16 -0.98757 -0.745768 0.655547 -0.118693 0.647399 0.755155 0.103037)
(0.157177 -3.86258e-17 -0.98757 -0.793834 0.594865 -0.126343 0.587471 0.803826 0.0934989)
(0.157177 9.34276e-18 -0.98757 -0.837098 0.530582 -0.133228 0.523987 0.847634 0.0833952)
(0.157177 -4.71916e-17 -0.98757 -0.875291 0.463097 -0.139307 0.457341 0.886308 0.0727881)
(0.157177 -4.89047e-17 -0.98757 -0.908193 0.392801 -0.144543 0.387919 0.919623 0.0617392)
(0.157177 -1.0279e-17 -0.98757 -0.935599 0.320128 -0.148905 0.316149 0.947374 0.0503167)
(0.157177 1.89244e-17 -0.98757 -0.957343 0.245518 -0.152366 0.242467 0.969392 0.0385898)
(0.157177 2.39843e-17 -0.98757 -0.973292 0.169432 -0.154904 0.167326 0.985542 0.0266308)
(0.157177 -2.19224e-17 -0.98757 -0.983354 0.0923112 -0.156506 0.0911638 0.99573 0.0145092)
(0.157177 -1.65963e-18 -0.98757 -0.987465 0.0146316 -0.15716 0.0144497 0.999893 0.00229975)
(0.157177 1.49902e-18 -0.98757 -0.9856 -0.0631365 -0.156863 -0.0623518 0.998005 -0.00992359)
(0.157177 -3.42632e-18 -0.98757 -0.977773 -0.140513 -0.155617 -0.138766 0.990079 -0.0220853)
(0.157177 2.56178e-17 -0.98757 -0.964028 -0.217049 -0.15343 -0.214351 0.976161 -0.034115)
(0.157177 2.6554e-17 -0.98757 -0.944449 -0.292271 -0.150314 -0.288638 0.956336 -0.0459382)
(0.157177 5.3885e-17 -0.98757 -0.919155 -0.365725 -0.146288 -0.361179 0.930723 -0.0574834)
(0.157177 1.12152e-17 -0.98757 -0.888303 -0.436956 -0.141378 -0.431525 0.899483 -0.0686794)
(0.157177 7.78692e-17 -0.98757 -0.852071 -0.505553 -0.135611 -0.499269 0.862796 -0.0794612)
(0.157177 1.01077e-16 -0.98757 -0.810684 -0.57109 -0.129024 -0.563992 0.820887 -0.0897621)
(0.157177 4.79685e-17 -0.98757 -0.764391 -0.633172 -0.121657 -0.625302 0.774011 -0.0995199)
(0.157177 -8.73712e-17 -0.98757 -0.713479 -0.691414 -0.113554 -0.68282 0.722458 -0.108674)
(0.157177 5.94926e-17 -0.98757 -0.658243 -0.745481 -0.104763 -0.736215 0.666527 -0.117172)
(0.157177 8.30087e-17 -0.98757 -0.599023 -0.795036 -0.0953375 -0.785154 0.606563 -0.124961)
(0.157177 -1.26306e-16 -0.98757 -0.536179 -0.83978 -0.0853356 -0.829342 0.542928 -0.131994)
(0.157177 1.07471e-17 -0.98757 -0.470099 -0.879437 -0.0748186 -0.868506 0.476016 -0.138227)
(0.157177 5.99607e-17 -0.98757 -0.401166 -0.913778 -0.0638475 -0.90242 0.406215 -0.143625)
(0.157177 3.74555e-17 -0.98757 -0.329805 -0.942589 -0.0524901 -0.930873 0.333956 -0.148153)
(0.157177 -4.04885e-18 -0.98757 -0.256448 -0.965696 -0.040815 -0.953693 0.259676 -0.151785)
(0.157177 4.68779e-17 -0.98757 -0.181549 -0.982957 -0.0288944 -0.97074 0.183834 -0.154498)
(0.157177 2.3556e-17 -0.98757 -0.105542 -0.994273 -0.0167975 -0.981915 0.10687 -0.156277)
(0.157177 4.14658e-18 -0.98757 -0.0288964 -0.999572 -0.004599 -0.987148 0.0292601 -0.157109)
(0.157177 -1.86879e-18 -0.98757 0.0479242 -0.998822 0.00762737 -0.986407 -0.0485274 -0.156992)
(0.157177 -2.61257e-17 -0.98757 0.124445 -0.992029 0.0198061 -0.979698 -0.126011 -0.155924)
(0.157177 -2.74106e-17 -0.98757 0.200223 -0.979232 0.0318664 -0.967061 -0.202743 -0.153912)
(0.157177 -1.00449e-17 -0.98757 0.274789 -0.96051 0.043734 -0.948571 -0.278247 -0.15097)
(0.157177 -9.59371e-17 -0.98757 0.347692 -0.935975 0.0553368 -0.924341 -0.352068 -0.147113)
(0.157177 1.71316e-17 -0.98757 0.418482 -0.90578 0.0666034 -0.894521 -0.423749 -0.142367)
(0.157177 8.09771e-18 -0.98757 0.486749 -0.8701 0.0774685 -0.859285 -0.492875 -0.136759)
(0.157177 1.48577e-16 -0.98757 0.55207 -0.829155 0.0878647 -0.818849 -0.559018 -0.130324)
(0.157177 -9.88953e-17 -0.98757 0.614051 -0.783193 0.0977292 -0.773458 -0.621779 -0.1231)
(0.157177 1.41734e-17 -0.98757 0.672308 -0.732498 0.107001 -0.723393 -0.68077 -0.115132)
(0.157177 1.46864e-16 -0.98757 0.726505 -0.677363 0.115627 -0.668944 -0.735649 -0.106466)
(0.157177 1.24506e-18 -0.98757 0.776305 -0.61813 0.123553 -0.610447 -0.786076 -0.0971557)
(0.157177 -4.2829e-17 -0.98757 0.821408 -0.555157 0.130731 -0.548256 -0.831746 -0.0872577)
(0.157177 1.13846e-16 -0.98757 0.861535 -0.488832 0.137117 -0.482756 -0.872378 -0.076833)
(0.157177 1.0014e-16 -0.98757 0.896454 -0.419541 0.142675 -0.414327 -0.907736 -0.0659421)
(0.157177 7.78885e-18 -0.98757 0.925948 -0.347712 0.147369 -0.34339 -0.937602 -0.0546522)
(0.157177 -3.85461e-17 -0.98757 0.949838 -0.273778 0.151171 -0.270375 -0.961793 -0.0430315)
(0.157177 -1.53388e-17 -0.98757 0.967979 -0.198197 0.154059 -0.195733 -0.980162 -0.0311519)
(0.157177 2.39843e-17 -0.98757 0.980265 -0.121407 0.156014 -0.119898 -0.992603 -0.0190823)
(0.157177 3.48122e-18 -0.98757 0.986619 -0.0438823 0.157025 -0.0433368 -0.999037 -0.00689727)
(0.157177 1.65414e-17 -0.98757 0.987003 0.0339078 0.157086 0.0334863 -0.999425 0.00532952)
(0.157177 -5.56778e-18 -0.98757 0.981414 0.111483 0.156197 0.110097 -0.993766 0.0175225)
(0.157177 1.87652e-17 -0.98757 0.969887 0.188393 0.154362 0.186052 -0.982094 0.029611)
(0.157177 4.36856e-17 -0.98757 0.95249 0.264163 0.151593 0.26088 -0.964478 0.0415203)
(0.157177 5.13949e-18 -0.98757 0.929329 0.338335 0.147907 0.33413 -0.941026 0.0531784)
(0.157177 -1.05439e-16 -0.98757 0.900549 0.41045 0.143327 0.405349 -0.911883 0.0645133)
(0.157177 1.71316e-17 -0.98757 0.866315 0.480091 0.137878 0.474124 -0.877219 0.0754592)
(0.157177 -1.17431e-16 -0.98757 0.826839 0.546827 0.131596 0.54003 -0.837246 0.0859484)
(0.157177 4.89047e-17 -0.98757 0.78236 0.610253 0.124516 0.602668 -0.792207 0.0959176)
(0.157177 1.05748e-16 -0.98757 0.733152 0.669979 0.116685 0.661652 -0.74238 0.105305)
(0.157177 3.98708e-17 -0.98757 0.679502 0.725659 0.108146 0.716639 -0.688055 0.114057)
(0.157177 -2.00898e-17 -0.98757 0.621741 0.776947 0.0989531 0.76729 -0.629566 0.122118)
(0.157177 -2.22711e-17 -0.98757 0.560216 0.823534 0.0891612 0.813298 -0.567267 0.12944)
(0.157177 2.39843e-17 -0.98757 0.49531 0.865132 0.0788311 0.854379 -0.501544 0.135979)
(0.157177 5.65343e-17 -0.98757 0.427399 0.901501 0.0680226 0.890295 -0.432778 0.141695)
(0.157177 3.87802e-17 -0.98757 0.356901 0.932414 0.0568026 0.920824 -0.361393 0.146554)
(0.157177 -1.11356e-17 -0.98757 0.284243 0.957684 0.0452387 0.945781 -0.287821 0.150526)
(0.157177 -5.91041e-17 -0.98757 0.209875 0.977157 0.0334027 0.965012 -0.212517 0.153586)
(0.157177 -5.99607e-18 -0.98757 0.134228 0.99072 0.021363 0.978406 -0.135917 0.155718)
(0.157177 -2.27579e-17 -0.98757 0.057768 0.998288 0.00919407 0.985879 -0.0584951 0.156908)
(0.157177 -1.04147e-18 -0.98757 -0.0190413 0.999814 -0.00303052 0.987387 0.019281 0.157148)
(0.157177 -2.56974e-18 -0.98757 -0.0957258 0.995291 -0.0152352 0.98292 0.0969306 0.156437)
(0.157177 1.09015e-17 -0.98757 -0.171841 0.984745 -0.0273493 0.972505 0.174003 0.154779)
(0.157177 -1.88448e-17 -0.98757 -0.246916 0.96824 -0.0392978 0.956205 0.250023 0.152185)
(0.157177 1.1268e-16 -0.98757 -0.320496 0.945875 -0.0510086 0.934119 0.32453 0.14867)
(0.157177 -2.11805e-17 -0.98757 -0.392129 0.917791 -0.0624092 0.906383 0.397064 0.144255)
(0.157177 1.42661e-16 -0.98757 -0.461398 0.884149 -0.0734337 0.87316 0.467205 0.138968)
(0.157177 -2.69425e-17 -0.98757 -0.527874 0.845157 -0.0840138 0.834652 0.534518 0.132839)
(0.157177 -3.94027e-17 -0.98757 -0.591156 0.801051 -0.0940854 0.791094 0.598596 0.125907)
(0.157177 7.66242e-17 -0.98757 -0.650854 0.752103 -0.103587 0.742755 0.659045 0.118213)
(0.157177 1.0279e-17 -0.98757 -0.70662 0.698599 -0.112462 0.689915 0.715514 0.109803)
(0.157177 -9.76502e-17 -0.98757 -0.758111 0.640866 -0.120657 0.632901 0.767652 0.100729)
(0.157177 -5.40442e-17 -0.98757 -0.805014 0.579256 -0.128122 0.572056 0.815146 0.0910456)
(0.157177 1.49981e-16 -0.98757 -0.84704 0.514149 -0.134811 0.507758 0.857701 0.0808122)
(0.157177 -9.34469e-17 -0.98757 -0.883946 0.445922 -0.140684 0.440379 0.895072 0.0700886)
(0.157177 9.17338e-17 -0.98757 -0.915504 0.374997 -0.145707 0.370336 0.927026 0.0589408)
(0.157177 9.77298e-17 -0.98757 -0.941521 0.301803 -0.149848 0.298051 0.95337 0.0474363)
(0.157177 -6.00403e-17 -0.98757 -0.961838 0.226791 -0.153081 0.223973 0.973943 0.0356463)
(0.157177 4.70323e-17 -0.98757 -0.976337 0.150398 -0.155389 0.148529 0.988625 0.0236391)
(0.157177 -4.41742e-18 -0.98757 -0.984929 0.0730954 -0.156756 0.0721868 0.997325 0.0114889)
(0.157177 -3.63979e-18 -0.98757 -0.98756 -0.00465004 -0.157175 -0.00459225 0.999989 -0.000730879)
(0.157177 1.01993e-17 -0.98757 -0.984216 -0.0823575 -0.156643 -0.0813338 0.996603 -0.0129447)
(0.157177 -2.39046e-17 -0.98757 -0.974915 -0.159576 -0.155163 -0.157593 0.987186 -0.0250817)
(0.157177 2.29684e-17 -0.98757 -0.959715 -0.23583 -0.152743 -0.232898 0.971794 -0.0370669)
(0.157177 5.48212e-17 -0.98757 -0.938708 -0.310656 -0.1494 -0.306795 0.950522 -0.0488279)
(0.157177 1.19921e-17 -0.98757 -0.912024 -0.383593 -0.145153 -0.378825 0.923502 -0.0602919)
(0.157177 2.74106e-17 -0.98757 -0.879817 -0.454218 -0.140027 -0.448572 0.890891 -0.0713925)
(0.157177 -7.02396e-17 -0.98757 -0.842287 -0.522095 -0.134054 -0.515605 0.852888 -0.0820611)
(0.157177 -7.70923e-17 -0.98757 -0.799659 -0.586812 -0.12727 -0.579518 0.809723 -0.0922331)
(0.157177 8.519e-17 -0.98757 -0.752192 -0.647978 -0.119715 -0.639924 0.761659 -0.101847)
(0.157177 1.19921e-17 -0.98757 -0.70018 -0.705216 -0.111437 -0.69645 0.708993 -0.110843)
(0.157177 1.37053e-16 -0.98757 -0.643925 -0.758193 -0.102484 -0.748769 0.65203 -0.11917)
(0.157177 -3.1305e-17 -0.98757 -0.583773 -0.806583 -0.0929104 -0.796558 0.591121 -0.126776)
(0.157177 -2.1803e-17 -0.98757 -0.520097 -0.850086 -0.0827761 -0.83952 0.526643 -0.133614)
(0.157177 -1.54185e-17 -0.98757 -0.453266 -0.888451 -0.0721395 -0.877408 0.458971 -0.139644)
(0.157177 8.69031e-17 -0.98757 -0.383692 -0.92144 -0.0610664 -0.909987 0.388521 -0.144829)
(0.157177 -6.48661e-17 -0.98757 -0.311795 -0.948853 -0.0496238 -0.937059 0.31572 -0.149138)
(0.157177 -4.66438e-17 -0.98757 -0.238022 -0.970521 -0.0378823 -0.958458 0.241017 -0.152543)
(0.157177 -2.53862e-17 -0.98757 -0.162799 -0.986319 -0.0259102 -0.97406 0.164848 -0.155026)
(0.157177 8.95187e-19 -0.98757 -0.0865902 -0.996149 -0.0137813 -0.983767 0.08768 -0.156571)
(0.157177 -2.26798e-18 -0.98757 -0.00985783 -0.99995 -0.00156892 -0.987521 0.0099819 -0.157169)
(0.157177 -1.49902e-17 -0.98757 0.0669245 -0.997701 0.0106514 -0.9853 -0.0677668 -0.156815)
(0.157177 -8.9941e-18 -0.98757 0.143312 -0.989415 0.0228087 -0.977117 -0.145115 -0.155513)
(0.157177 -2.85012e-17 -0.98757 0.218831 -0.975141 0.0348281 -0.96302 -0.221586 -0.153269)
(0.157177 6.3387e-17 -0.98757 0.293027 -0.954966 0.0466367 -0.943096 -0.296715 -0.150098)
(0.157177 -8.73712e-17 -0.98757 0.36544 -0.929016 0.0581616 -0.917469 -0.37004 -0.14602)
(0.157177 -7.88054e-17 -0.98757 0.435643 -0.897445 0.0693347 -0.886291 -0.441125 -0.141058)
(0.157177 -3.08369e-17 -0.98757 0.503226 -0.860435 0.0800909 -0.849741 -0.50956 -0.13524)
(0.157177 6.85265e-18 -0.98757 0.567764 -0.818217 0.0903624 -0.808047 -0.574909 -0.128605)
(0.157177 -5.3108e-17 -0.98757 0.628865 -0.771046 0.100087 -0.761462 -0.636779 -0.12119)
(0.157177 -5.26399e-17 -0.98757 0.686159 -0.719208 0.109206 -0.710269 -0.694795 -0.113043)
(0.157177 -2.99007e-17 -0.98757 0.739235 -0.66309 0.117653 -0.654849 -0.748539 -0.104222)
(0.157177 -1.35649e-16 -0.98757 0.787907 -0.602891 0.125399 -0.595397 -0.797824 -0.0947604)
(0.157177 8.56581e-17 -0.98757 0.83181 -0.539042 0.132387 -0.532342 -0.842279 -0.0847248)
(0.157177 1.13069e-16 -0.98757 0.870678 -0.47193 0.138573 -0.466064 -0.881636 -0.0741764)
(0.157177 1.18985e-16 -0.98757 0.904276 -0.401961 0.14392 -0.396965 -0.915657 -0.0631789)
(0.157177 -1.28487e-17 -0.98757 0.9324 -0.32956 0.148396 -0.325463 -0.944135 -0.0517991)
(0.157177 -1.79882e-17 -0.98757 0.95488 -0.255163 0.151974 -0.251992 -0.966898 -0.0401057)
(0.157177 -1.11356e-17 -0.98757 0.97158 -0.179222 0.154632 -0.176995 -0.983809 -0.0281696)
(0.157177 -2.41049e-18 -0.98757 0.98239 -0.102295 0.156352 -0.101024 -0.994754 -0.0160784)
(0.157177 -5.62809e-19 -0.98757 0.98727 -0.0246512 0.157129 -0.0243448 -0.999696 -0.00387459)
(0.157177 -4.49705e-18 -0.98757 0.986175 0.0531418 0.156955 0.0524813 -0.998587 0.00835266)
(0.157177 5.6474e-18 -0.98757 0.97911 0.130613 0.15583 0.12899 -0.991433 0.0205293)
(0.157177 4.2829e-18 -0.98757 0.966119 0.207294 0.153763 0.204717 -0.978279 0.0325818)
(0.157177 -7.2889e-17 -0.98757 0.94728 0.28272 0.150764 0.279206 -0.959203 0.044437)
(0.157177 6.51001e-17 -0.98757 0.922707 0.356435 0.146853 0.352004 -0.93432 0.0560232)
(0.157177 -1.19921e-17 -0.98757 0.892549 0.427992 0.142054 0.422672 -0.903783 0.0672704)
(0.157177 -2.56974e-17 -0.98757 0.857037 0.496873 0.136402 0.490697 -0.867823 0.0780968)
(0.157177 2.39843e-17 -0.98757 0.816295 0.562835 0.129917 0.55584 -0.826569 0.0884646)
(0.157177 5.82475e-17 -0.98757 0.770613 0.625391 0.122647 0.617618 -0.780312 0.0982969)
(0.157177 9.34469e-17 -0.98757 0.720266 0.684161 0.114634 0.675657 -0.729331 0.107534)
(0.157177 -1.19921e-17 -0.98757 0.665559 0.73879 0.105927 0.729608 -0.673935 0.116121)
(0.157177 1.71316e-18 -0.98757 0.606823 0.788947 0.0965789 0.779141 -0.614461 0.124004)
(0.157177 5.43531e-17 -0.98757 0.544415 0.834329 0.0866463 0.823959 -0.551267 0.131137)
(0.157177 -1.37989e-16 -0.98757 0.478711 0.874661 0.0761892 0.863789 -0.484736 0.137476)
(0.157177 2.74106e-17 -0.98757 0.410198 0.909657 0.065285 0.89835 -0.415361 0.142977)
(0.157177 -5.07723e-17 -0.98757 0.339117 0.939195 0.0539721 0.927521 -0.343385 0.14762)
(0.157177 -1.20389e-16 -0.98757 0.265983 0.963048 0.0423325 0.951078 -0.269331 0.151369)
(0.157177 6.54138e-18 -0.98757 0.191239 0.981071 0.0304367 0.968877 -0.193646 0.154202)
(0.157177 -2.70993e-17 -0.98757 0.115338 0.993157 0.0183566 0.980812 -0.11679 0.156101)
(0.157177 6.10314e-18 -0.98757 0.0387388 0.99923 0.00616547 0.98681 -0.0392264 0.157056)
(0.157177 1.24789e-17 -0.98757 -0.0380951 0.999256 -0.00606302 0.986835 0.0385745 0.15706)
(0.157177 -1.6275e-17 -0.98757 -0.114698 0.993233 -0.0182548 0.980887 0.116142 0.156113)
(0.157177 -2.56974e-17 -0.98757 -0.190512 0.981217 -0.0303209 0.969021 0.192909 0.154224)
(0.157177 -6.98512e-17 -0.98757 -0.265269 0.96325 -0.0422188 0.951277 0.268607 0.1514)
(0.157177 -4.51696e-18 -0.98757 -0.33842 0.939452 -0.0538612 0.927775 0.342679 0.14766)
(0.157177 -9.76502e-17 -0.98757 -0.409523 0.909969 -0.0651776 0.898658 0.414677 0.143026)
(0.157177 -8.05186e-17 -0.98757 -0.478147 0.874977 -0.0760995 0.864101 0.484165 0.137526)
(0.157177 4.67235e-17 -0.98757 -0.543877 0.834689 -0.0865607 0.824314 0.550722 0.131194)
(0.157177 -2.27392e-17 -0.98757 -0.606315 0.789348 -0.096498 0.779537 0.613946 0.124067)
(0.157177 4.79685e-17 -0.98757 -0.665083 0.73923 -0.105851 0.730042 0.673453 0.11619)
(0.157177 1.18676e-16 -0.98757 -0.719758 0.684709 -0.114553 0.676198 0.728817 0.10762)
(0.157177 -1.71316e-17 -0.98757 -0.770149 0.625977 -0.122573 0.618196 0.779842 0.098389)
(0.157177 1.06375e-16 -0.98757 -0.815878 0.563456 -0.129851 0.556452 0.826146 0.0885622)
(0.157177 9.15745e-17 -0.98757 -0.856668 0.497524 -0.136343 0.49134 0.86745 0.0781993)
(0.157177 1.07929e-16 -0.98757 -0.892273 0.428581 -0.14201 0.423254 0.903503 0.067363)
(0.157177 -7.02396e-17 -0.98757 -0.922477 0.357044 -0.146817 0.352606 0.934088 0.056119)
(0.157177 5.3108e-17 -0.98757 -0.947098 0.283346 -0.150735 0.279824 0.959018 0.0445353)
(0.157177 -4.6335e-17 -0.98757 -0.965985 0.207932 -0.153741 0.205348 0.978143 0.0326821)
(0.157177 1.58467e-17 -0.98757 -0.979013 0.131358 -0.155815 0.129725 0.991335 0.0206464)
(0.157177 1.15638e-17 -0.98757 -0.986135 0.0538918 -0.156948 0.053222 0.998547 0.00847054)
(0.157177 0 -0.98757 -0.987288 -0.0239003 -0.157132 -0.0236033 0.999714 -0.00375658)
(0.157177 5.99607e-18 -0.98757 -0.982465 -0.101548 -0.156364 -0.100286 0.994831 -0.015961)
(0.157177 2.05579e-17 -0.98757 -0.971696 -0.178581 -0.15465 -0.176361 0.983925 -0.0280687)
(0.157177 -8.48618e-18 -0.98757 -0.955044 -0.254533 -0.152 -0.251369 0.967064 -0.0400066)
(0.157177 7.45225e-17 -0.98757 -0.932612 -0.328944 -0.14843 -0.324855 0.94435 -0.0517023)
(0.157177 4.09566e-17 -0.98757 -0.904534 -0.401364 -0.143961 -0.396375 0.915919 -0.0630851)
(0.157177 8.90844e-17 -0.98757 -0.871028 -0.471267 -0.138628 -0.46541 0.88199 -0.0740723)
(0.157177 -2.05579e-17 -0.98757 -0.83221 -0.538409 -0.13245 -0.531717 0.842684 -0.0846253)
(0.157177 -3.08369e-17 -0.98757 -0.788354 -0.602291 -0.12547 -0.594805 0.798276 -0.0946662)
(0.157177 1.66635e-17 -0.98757 -0.739727 -0.662528 -0.117731 -0.654293 0.749037 -0.104134)
(0.157177 9.76502e-17 -0.98757 -0.686622 -0.718755 -0.109279 -0.709821 0.695264 -0.112971)
(0.157177 9.03295e-17 -0.98757 -0.629361 -0.770631 -0.100166 -0.761052 0.637282 -0.121125)
(0.157177 8.09867e-17 -0.98757 -0.568291 -0.817842 -0.0904463 -0.807676 0.575443 -0.128546)
(0.157177 8.22318e-17 -0.98757 -0.50378 -0.860103 -0.0801791 -0.849412 0.510121 -0.135188)
(0.157177 5.48212e-17 -0.98757 -0.436308 -0.897114 -0.0694406 -0.885963 0.441799 -0.141005)
(0.157177 -1.54185e-17 -0.98757 -0.366111 -0.928745 -0.0582684 -0.917201 0.370719 -0.145977)
(0.157177 4.00252e-17 -0.98757 -0.293698 -0.954755 -0.0467435 -0.942888 0.297394 -0.150065)
(0.157177 -9.65596e-17 -0.98757 -0.219507 -0.974985 -0.0349356 -0.962867 0.22227 -0.153245)
(0.157177 -3.85461e-17 -0.98757 -0.143987 -0.989314 -0.0229163 -0.977017 0.1458 -0.155497)
(0.157177 -2.33418e-17 -0.98757 -0.0675964 -0.997655 -0.0107583 -0.985254 0.0684471 -0.156808)
(0.157177 1.33841e-18 -0.98757 0.0092039 -0.999957 0.00146485 -0.987528 -0.00931974 -0.15717)
(0.157177 -8.56581e-18 -0.98757 0.0859484 -0.996206 0.0136791 -0.983823 -0.0870302 -0.15658)
(0.157177 -5.45075e-18 -0.98757 0.162077 -0.986441 0.0257953 -0.97418 -0.164116 -0.155046)
(0.157177 1.11356e-17 -0.98757 0.237321 -0.970697 0.0377708 -0.958631 -0.240308 -0.152571)
(0.157177 -2.93578e-17 -0.98757 0.311128 -0.949077 0.0495176 -0.93728 -0.315044 -0.149173)
(0.157177 -3.94027e-17 -0.98757 0.383053 -0.921712 0.0609648 -0.910256 -0.387874 -0.144872)
(0.157177 -3.37951e-17 -0.98757 0.452659 -0.888769 0.0720429 -0.877722 -0.458356 -0.139694)
(0.157177 9.71821e-17 -0.98757 0.519525 -0.850445 0.0826849 -0.839875 -0.526063 -0.13367)
(0.157177 -1.16963e-16 -0.98757 0.583246 -0.806974 0.0928265 -0.796944 -0.590587 -0.126838)
(0.157177 2.61655e-17 -0.98757 0.643437 -0.758619 0.102406 -0.749189 -0.651535 -0.119237)
(0.157177 -3.37951e-17 -0.98757 0.699664 -0.705741 0.111355 -0.696969 -0.70847 -0.110926)
(0.157177 -7.58472e-17 -0.98757 0.75173 -0.648527 0.119642 -0.640466 -0.761192 -0.101933)
(0.157177 -7.6296e-18 -0.98757 0.799246 -0.587388 0.127204 -0.580087 -0.809306 -0.0923237)
(0.157177 5.21718e-17 -0.98757 0.841925 -0.522693 0.133996 -0.516196 -0.852521 -0.0821552)
(0.157177 1.48268e-16 -0.98757 0.879507 -0.454834 0.139978 -0.449181 -0.890576 -0.0714894)
(0.157177 1.14782e-16 -0.98757 0.911765 -0.384223 0.145112 -0.379447 -0.92324 -0.0603909)
(0.157177 -1.36257e-17 -0.98757 0.938505 -0.311285 0.149368 -0.307416 -0.950317 -0.0489268)
(0.157177 -3.42632e-17 -0.98757 0.959563 -0.236464 0.152719 -0.233524 -0.97164 -0.0371666)
(0.157177 1.46415e-17 -0.98757 0.974814 -0.160211 0.155146 -0.158219 -0.987083 -0.0251814)
(0.157177 -3.77499e-18 -0.98757 0.984156 -0.0830863 0.156633 -0.0820536 -0.996542 -0.0130592)
(0.157177 7.94878e-18 -0.98757 0.987556 -0.0053616 0.157174 -0.00529496 -0.999986 -0.00084272)
(0.157177 7.70923e-18 -0.98757 0.984979 0.0723955 0.156764 0.0714957 -0.997376 0.0113789)
(0.157177 2.69823e-17 -0.98757 0.97644 0.149714 0.155405 0.147854 -0.988729 0.0235316)
(0.157177 1.12152e-17 -0.98757 0.96199 0.226127 0.153106 0.223317 -0.974098 0.0355419)
(0.157177 -5.83681e-18 -0.98757 0.941718 0.301171 0.149879 0.297428 -0.95357 0.0473371)
(0.157177 3.17731e-17 -0.98757 0.915745 0.374392 0.145745 0.369739 -0.92727 0.0588457)
(0.157177 7.2889e-17 -0.98757 0.884273 0.445259 0.140736 0.439724 -0.895402 0.0699843)
(0.157177 -8.41042e-17 -0.98757 0.847411 0.513521 0.13487 0.507138 -0.858077 0.0807136)
(0.157177 3.69126e-17 -0.98757 0.805421 0.578676 0.128187 0.571483 -0.815558 0.0909544)
(0.157177 6.38454e-18 -0.98757 0.758555 0.640328 0.120728 0.632369 -0.768102 0.100645)
(0.157177 4.3606e-17 -0.98757 0.707097 0.698103 0.112538 0.689426 -0.715997 0.109726)
(0.157177 4.20328e-18 -0.98757 0.65136 0.751654 0.103667 0.742311 -0.659558 0.118142)
(0.157177 2.69425e-17 -0.98757 0.59168 0.800654 0.0941688 0.790702 -0.599127 0.125844)
(0.157177 -5.91644e-18 -0.98757 0.528418 0.844808 0.0841004 0.834308 -0.535069 0.132784)
(0.157177 8.95525e-17 -0.98757 0.462045 0.883803 0.0735367 0.872817 -0.46786 0.138913)
(0.157177 1.24602e-17 -0.98757 0.392792 0.9175 0.0625147 0.906096 -0.397735 0.14421)
(0.157177 7.24209e-17 -0.98757 0.321161 0.945644 0.0511144 0.93389 -0.325203 0.148633)
(0.157177 -6.96171e-17 -0.98757 0.247587 0.968064 0.0394046 0.956032 -0.250703 0.152157)
(0.157177 4.62554e-17 -0.98757 0.172513 0.984624 0.0274564 0.972386 -0.174685 0.15476)
(0.157177 -8.9941e-18 -0.98757 0.096396 0.995225 0.0153419 0.982855 -0.0976093 0.156426)
(0.157177 -3.81571e-18 -0.98757 0.0196952 0.999801 0.00313458 0.987374 -0.0199431 0.157145)
(0.157177 -1.0396e-17 -0.98757 -0.0571249 0.998326 -0.00909171 0.985917 0.0578439 0.156914)
(0.157177 -2.98633e-17 -0.98757 -0.133503 0.990821 -0.0212476 0.978505 0.135183 0.155734)
(0.157177 4.39197e-17 -0.98757 -0.20917 0.977313 -0.0332904 0.965165 0.211802 0.153611)
(0.157177 -1.00449e-17 -0.98757 -0.28357 0.957889 -0.0451316 0.945983 0.287139 0.150558)
(0.157177 -6.3387e-17 -0.98757 -0.356255 0.932667 -0.0566997 0.921074 0.360739 0.146594)
(0.157177 1.21634e-16 -0.98757 -0.426783 0.9018 -0.0679246 0.890591 0.432154 0.141742)
(0.157177 -7.66242e-17 -0.98757 -0.494727 0.865474 -0.0787383 0.854716 0.500954 0.136032)
(0.157177 -1.54185e-17 -0.98757 -0.559678 0.823909 -0.0890754 0.813669 0.566722 0.129499)
(0.157177 -1.96217e-17 -0.98757 -0.62124 0.777358 -0.0988734 0.767696 0.629059 0.122183)
(0.157177 -8.34768e-17 -0.98757 -0.678971 0.726169 -0.108062 0.717143 0.687517 0.114137)
(0.157177 -5.1863e-17 -0.98757 -0.732668 0.670522 -0.116608 0.662188 0.74189 0.10539)
(0.157177 -6.77495e-17 -0.98757 -0.781931 0.610817 -0.124448 0.603224 0.791772 0.0960062)
(0.157177 1.49204e-16 -0.98757 -0.82646 0.547414 -0.131535 0.54061 0.836862 0.0860407)
(0.157177 1.17431e-16 -0.98757 -0.865987 0.480698 -0.137826 0.474723 0.876886 0.0755545)
(0.157177 -5.82475e-17 -0.98757 -0.900272 0.411072 -0.143283 0.405963 0.911603 0.064611)
(0.157177 -3.94027e-17 -0.98757 -0.929108 0.338958 -0.147872 0.334745 0.940801 0.0532763)
(0.157177 -5.14745e-17 -0.98757 -0.95232 0.264793 -0.151566 0.261501 0.964305 0.0416192)
(0.157177 -4.2829e-18 -0.98757 -0.969749 0.189121 -0.15434 0.18677 0.981954 0.0297254)
(0.157177 -1.58467e-17 -0.98757 -0.981334 0.11221 -0.156184 0.110815 0.993685 0.0176367)
(0.157177 -3.64047e-18 -0.98757 -0.986979 0.034619 -0.157083 0.0341887 0.999401 0.00544129)
(0.157177 6.71813e-18 -0.98757 -0.986649 -0.0431812 -0.15703 -0.0426445 0.999067 -0.00678709)
(0.157177 2.18428e-17 -0.98757 -0.980348 -0.12072 -0.156027 -0.11922 0.992687 -0.0189744)
(0.157177 3.6833e-17 -0.98757 -0.968113 -0.197528 -0.15408 -0.195073 0.980297 -0.0310468)
(0.157177 6.15942e-17 -0.98757 -0.950017 -0.273141 -0.1512 -0.269746 0.961974 -0.0429314)
(0.157177 4.03389e-17 -0.98757 -0.926171 -0.3471 -0.147405 -0.342786 0.937828 -0.054556)
(0.157177 3.76896e-17 -0.98757 -0.89676 -0.418868 -0.142724 -0.413662 0.908047 -0.0658364)
(0.157177 -4.53192e-17 -0.98757 -0.861887 -0.488194 -0.137174 -0.482126 0.872735 -0.0767327)
(0.157177 3.42632e-17 -0.98757 -0.821797 -0.554565 -0.130793 -0.547672 0.832141 -0.0871647)
(0.157177 5.09267e-17 -0.98757 -0.776733 -0.617579 -0.123621 -0.609902 0.786509 -0.097069)
(0.157177 6.51001e-17 -0.98757 -0.726967 -0.676854 -0.1157 -0.668441 0.736117 -0.106386)
(0.157177 -1.5029e-16 -0.98757 -0.672801 -0.732033 -0.10708 -0.722934 0.681269 -0.115059)
(0.157177 7.70923e-17 -0.98757 -0.614563 -0.782781 -0.0978107 -0.773051 0.622297 -0.123035)
(0.157177 2.22711e-17 -0.98757 -0.552604 -0.82879 -0.0879497 -0.818489 0.559559 -0.130267)
(0.157177 4.84366e-17 -0.98757 -0.487385 -0.869735 -0.0775698 -0.858924 0.49352 -0.136702)
(0.157177 -1.19921e-17 -0.98757 -0.419136 -0.90547 -0.0667075 -0.894215 0.424411 -0.142319)
(0.157177 2.632e-17 -0.98757 -0.348349 -0.935724 -0.0554415 -0.924093 0.352734 -0.147074)
(0.157177 1.71316e-18 -0.98757 -0.275454 -0.960314 -0.0438399 -0.948378 0.278921 -0.150939)
(0.157177 -2.48408e-17 -0.98757 -0.200892 -0.979092 -0.0319729 -0.966922 0.20342 -0.15389)
(0.157177 2.01297e-17 -0.98757 -0.125113 -0.991943 -0.0199124 -0.979613 0.126688 -0.15591)
(0.157177 9.79217e-18 -0.98757 -0.0485774 -0.998789 -0.00773133 -0.986375 0.0491888 -0.156986)
(0.157177 -5.53852e-18 -0.98757 0.0282524 -0.999591 0.00449652 -0.987166 -0.028608 -0.157112)
(0.157177 -1.15638e-17 -0.98757 0.104814 -0.994352 0.0166817 -0.981993 -0.106133 -0.156289)
(0.157177 -1.57297e-17 -0.98757 0.180839 -0.983091 0.0287814 -0.970872 -0.183115 -0.154519)
(0.157177 -1.6275e-17 -0.98757 0.255769 -0.96588 0.040707 -0.953875 -0.258989 -0.151814)
(0.157177 9.33673e-17 -0.98757 0.329152 -0.942823 0.0523861 -0.931104 -0.333294 -0.14819)
(0.157177 -2.69425e-17 -0.98757 0.400541 -0.914058 0.0637481 -0.902697 -0.405582 -0.143669)
(0.157177 -2.69425e-17 -0.98757 0.469507 -0.879761 0.0747243 -0.868826 -0.475416 -0.138278)
(0.157177 -5.60662e-17 -0.98757 0.53563 -0.840139 0.0852481 -0.829696 -0.542371 -0.13205)
(0.157177 -3.72215e-17 -0.98757 0.598511 -0.795431 0.095256 -0.785544 -0.606044 -0.125023)
(0.157177 -5.26399e-17 -0.98757 0.657697 -0.745975 0.104676 -0.736702 -0.665975 -0.11725)
(0.157177 4.67235e-17 -0.98757 0.712979 -0.691943 0.113474 -0.683342 -0.721953 -0.108757)
(0.157177 -3.42632e-18 -0.98757 0.763946 -0.633722 0.121586 -0.625846 -0.773561 -0.0996064)
(0.157177 -3.50402e-17 -0.98757 0.810288 -0.571666 0.128961 -0.564561 -0.820486 -0.0898526)
(0.157177 -4.54784e-17 -0.98757 0.851726 -0.50615 0.135556 -0.499859 -0.862446 -0.079555)
(0.157177 -8.73712e-17 -0.98757 0.888008 -0.43757 0.141331 -0.432131 -0.899184 -0.0687758)
(0.157177 -4.11159e-17 -0.98757 0.918915 -0.366341 0.14625 -0.361788 -0.930481 -0.0575803)
(0.157177 -2.30481e-17 -0.98757 0.94426 -0.292895 0.150284 -0.289254 -0.956145 -0.0460362)
(0.157177 -2.90441e-17 -0.98757 0.963868 -0.217772 0.153404 -0.215065 -0.976 -0.0342287)
(0.157177 -3.88948e-17 -0.98757 0.977671 -0.141237 0.155601 -0.139481 -0.989976 -0.0221991)
(0.157177 -8.9941e-18 -0.98757 0.985556 -0.0638467 0.156856 -0.0630531 -0.99796 -0.0100352)
(0.157177 -1.28487e-18 -0.98757 0.987475 0.01393 0.157161 0.0137568 -0.999903 0.00218947)
(0.157177 -7.86848e-18 -0.98757 0.983417 0.0916223 0.156516 0.0904835 -0.995794 0.0144009)
(0.157177 -2.56974e-17 -0.98757 0.973406 0.16876 0.154922 0.166662 -0.985657 0.0265252)
(0.157177 2.9283e-17 -0.98757 0.957503 0.244876 0.152391 0.241833 -0.969554 0.0384889)
(0.157177 -2.82672e-17 -0.98757 0.935805 0.31951 0.148938 0.315539 -0.947583 0.0502196)
(0.157177 3.94027e-17 -0.98757 0.90848 0.392119 0.144589 0.387246 -0.919914 0.0616321)
(0.157177 -1.06216e-16 -0.98757 0.875625 0.462449 0.13936 0.456701 -0.886646 0.0726862)
(0.157177 1.15559e-16 -0.98757 0.837471 0.529979 0.133288 0.523391 -0.848011 0.0833003)
(0.157177 2.99007e-17 -0.98757 0.794246 0.594301 0.126408 0.586914 -0.804243 0.0934103)
(0.157177 9.98315e-17 -0.98757 0.746215 0.655026 0.118764 0.646884 -0.755607 0.102955)
(0.157177 -5.70024e-17 -0.98757 0.693666 0.711786 0.1104 0.702939 -0.702397 0.111876)
(0.157177 9.03295e-17 -0.98757 0.636919 0.764237 0.101369 0.754738 -0.644935 0.12012)
(0.157177 7.53791e-17 -0.98757 0.576317 0.812063 0.0917236 0.801969 -0.58357 0.127637)
(0.157177 9.4692e-17 -0.98757 0.512309 0.854922 0.0815365 0.844296 -0.518757 0.134374)
(0.157177 5.52893e-17 -0.98757 0.445121 0.892664 0.0708432 0.881568 -0.450723 0.140306)
(0.157177 -2.74106e-17 -0.98757 0.375239 0.925002 0.0597212 0.913505 -0.379962 0.145389)
(0.157177 -1.0902e-16 -0.98757 0.303086 0.951742 0.0482376 0.939912 -0.3069 0.149592)
(0.157177 -5.91041e-17 -0.98757 0.229098 0.97272 0.036462 0.96063 -0.231981 0.152889)
(0.157177 -1.95071e-17 -0.98757 0.153723 0.987811 0.0244658 0.975533 -0.155658 0.155261)
(0.157177 -6.57999e-18 -0.98757 0.077418 0.996923 0.0123215 0.984531 -0.0783924 0.156693)
(0.157177 1.56047e-19 -0.98757 0.000644208 1 0.000102529 0.98757 -0.000652316 0.157177)
(0.157177 -1.62165e-17 -0.98757 -0.0760362 0.997032 -0.0121015 0.984639 0.0769932 0.15671)