/*--------------------------------*- C++ -*----------------------------------*\
| =========                 |                                                 |
| \\      /  F ield         | foam-extend: Open Source CFD                    |
|  \\    /   O peration     | Version:     4.1                                |
|   \\  /    A nd           | Web:         http://www.foam-extend.org         |
|    \\/     M anipulation  |                                                 |
\*---------------------------------------------------------------------------*/
FoamFile
{
    version     2.0;
    format      ascii;
    class       surfaceVectorField;
    location    "0";
    object      refTangent;
}
// * * * * * * * * * * * * * * * * * * * * * * * * * * * * * * * * * * * * * //

dimensions      [0 0 0 0 0 0 0];

internalField   nonuniform List<vector> 
799
(
(0.157177 -0.0767636 0.984583)
(0.157177 -0.153063 0.975637)
(0.157177 -0.228435 0.960788)
(0.157177 -0.302426 0.940124)
(0.157177 -0.374587 0.913772)
(0.157177 -0.444481 0.881891)
(0.157177 -0.511685 0.844674)
(0.157177 -0.575793 0.802345)
(0.157177 -0.636417 0.755162)
(0.157177 -0.69319 0.703408)
(0.157177 -0.745768 0.647399)
(0.157177 -0.793834 0.587471)
(0.157177 -0.837098 0.523987)
(0.157177 -0.875291 0.457341)
(0.157177 -0.908193 0.387919)
(0.157177 -0.935599 0.316149)
(0.157177 -0.957343 0.242467)
(0.157177 -0.973292 0.167326)
(0.157177 -0.983354 0.0911638)
(0.157177 -0.987465 0.0144497)
(0.157177 -0.9856 -0.0623518)
(0.157177 -0.977773 -0.138766)
(0.157177 -0.964028 -0.214351)
(0.157177 -0.944449 -0.288638)
(0.157177 -0.919155 -0.361179)
(0.157177 -0.888303 -0.431525)
(0.157177 -0.852071 -0.499269)
(0.157177 -0.810684 -0.563992)
(0.157177 -0.764391 -0.625302)
(0.157177 -0.713479 -0.68282)
(0.157177 -0.658243 -0.736215)
(0.157177 -0.599023 -0.785154)
(0.157177 -0.536179 -0.829342)
(0.157177 -0.470099 -0.868506)
(0.157177 -0.401166 -0.90242)
(0.157177 -0.329805 -0.930873)
(0.157177 -0.256448 -0.953693)
(0.157177 -0.181549 -0.97074)
(0.157177 -0.105542 -0.981915)
(0.157177 -0.0288964 -0.987148)
(0.157177 0.0479242 -0.986407)
(0.157177 0.124445 -0.979698)
(0.157177 0.200223 -0.967061)
(0.157177 0.274789 -0.948571)
(0.157177 0.347692 -0.924341)
(0.157177 0.418482 -0.894521)
(0.157177 0.486749 -0.859285)
(0.157177 0.55207 -0.818849)
(0.157177 0.614051 -0.773458)
(0.157177 0.672308 -0.723393)
(0.157177 0.726505 -0.668944)
(0.157177 0.776305 -0.610447)
(0.157177 0.821408 -0.548256)
(0.157177 0.861535 -0.482756)
(0.157177 0.896454 -0.414327)
(0.157177 0.925948 -0.34339)
(0.157177 0.949838 -0.270375)
(0.157177 0.967979 -0.195733)
(0.157177 0.980265 -0.119898)
(0.157177 0.986619 -0.0433368)
(0.157177 0.987003 0.0334863)
(0.157177 0.981414 0.110097)
(0.157177 0.969887 0.186052)
(0.157177 0.95249 0.26088)
(0.157177 0.929329 0.33413)
(0.157177 0.900549 0.405349)
(0.157177 0.866315 0.474124)
(0.157177 0.826839 0.54003)
(0.157177 0.78236 0.602668)
(0.157177 0.733152 0.661652)
(0.157177 0.679502 0.716639)
(0.157177 0.621741 0.76729)
(0.157177 0.560216 0.813298)
(0.157177 0.49531 0.854379)
(0.157177 0.427399 0.890295)
(0.157177 0.356901 0.920824)
(0.157177 0.284243 0.945781)
(0.157177 0.209875 0.965012)
(0.157177 0.134228 0.978406)
(0.157177 0.057768 0.985879)
(0.157177 -0.0190413 0.987387)
(0.157177 -0.0957258 0.98292)
(0.157177 -0.171841 0.972505)
(0.157177 -0.246916 0.956205)
(0.157177 -0.320496 0.934119)
(0.157177 -0.392129 0.906383)
(0.157177 -0.461398 0.87316)
(0.157177 -0.527874 0.834652)
(0.157177 -0.591156 0.791094)
(0.157177 -0.650854 0.742755)
(0.157177 -0.70662 0.689915)
(0.157177 -0.758111 0.632901)
(0.157177 -0.805014 0.572056)
(0.157177 -0.84704 0.507758)
(0.157177 -0.883946 0.440379)
(0.157177 -0.915504 0.370336)
(0.157177 -0.941521 0.298051)
(0.157177 -0.961838 0.223973)
(0.157177 -0.976337 0.148529)
(0.157177 -0.984929 0.0721868)
(0.157177 -0.98756 -0.00459225)
(0.157177 -0.984216 -0.0813338)
(0.157177 -0.974915 -0.157593)
(0.157177 -0.959715 -0.232898)
(0.157177 -0.938708 -0.306795)
(0.157177 -0.912024 -0.378825)
(0.157177 -0.879817 -0.448572)
(0.157177 -0.842287 -0.515605)
(0.157177 -0.799659 -0.579518)
(0.157177 -0.752192 -0.639924)
(0.157177 -0.70018 -0.69645)
(0.157177 -0.643925 -0.748769)
(0.157177 -0.583773 -0.796558)
(0.157177 -0.520097 -0.83952)
(0.157177 -0.453266 -0.877408)
(0.157177 -0.383692 -0.909987)
(0.157177 -0.311795 -0.937059)
(0.157177 -0.238022 -0.958458)
(0.157177 -0.162799 -0.97406)
(0.157177 -0.0865902 -0.983767)
(0.157177 -0.00985783 -0.987521)
(0.157177 0.0669245 -0.9853)
(0.157177 0.143312 -0.977117)
(0.157177 0.218831 -0.96302)
(0.157177 0.293027 -0.943096)
(0.157177 0.36544 -0.917469)
(0.157177 0.435643 -0.886291)
(0.157177 0.503226 -0.849741)
(0.157177 0.567764 -0.808047)
(0.157177 0.628865 -0.761462)
(0.157177 0.686159 -0.710269)
(0.157177 0.739235 -0.654849)
(0.157177 0.787907 -0.595397)
(0.157177 0.83181 -0.532342)
(0.157177 0.870678 -0.466064)
(0.157177 0.904276 -0.396965)
(0.157177 0.9324 -0.325463)
(0.157177 0.95488 -0.251992)
(0.157177 0.97158 -0.176995)
(0.157177 0.98239 -0.101024)
(0.157177 0.98727 -0.0243448)
(0.157177 0.986175 0.0524813)
(0.157177 0.97911 0.12899)
(0.157177 0.966119 0.204717)
(0.157177 0.94728 0.279206)
(0.157177 0.922707 0.352004)
(0.157177 0.892549 0.422672)
(0.157177 0.857037 0.490697)
(0.157177 0.816295 0.55584)
(0.157177 0.770613 0.617618)
(0.157177 0.720266 0.675657)
(0.157177 0.665559 0.729608)
(0.157177 0.606823 0.779141)
(0.157177 0.544415 0.823959)
(0.157177 0.478711 0.863789)
(0.157177 0.410198 0.89835)
(0.157177 0.339117 0.927521)
(0.157177 0.265983 0.951078)
(0.157177 0.191239 0.968877)
(0.157177 0.115338 0.980812)
(0.157177 0.0387388 0.98681)
(0.157177 -0.0380951 0.986835)
(0.157177 -0.114698 0.980887)
(0.157177 -0.190512 0.969021)
(0.157177 -0.265269 0.951277)
(0.157177 -0.33842 0.927775)
(0.157177 -0.409523 0.898658)
(0.157177 -0.478147 0.864101)
(0.157177 -0.543877 0.824314)
(0.157177 -0.606315 0.779537)
(0.157177 -0.665083 0.730042)
(0.157177 -0.719758 0.676198)
(0.157177 -0.770149 0.618196)
(0.157177 -0.815878 0.556452)
(0.157177 -0.856668 0.49134)
(0.157177 -0.892273 0.423254)
(0.157177 -0.922477 0.352606)
(0.157177 -0.947098 0.279824)
(0.157177 -0.965985 0.205348)
(0.157177 -0.979013 0.129725)
(0.157177 -0.986135 0.053222)
(0.157177 -0.987288 -0.0236033)
(0.157177 -0.982465 -0.100286)
(0.157177 -0.971696 -0.176361)
(0.157177 -0.955044 -0.251369)
(0.157177 -0.932612 -0.324855)
(0.157177 -0.904534 -0.396375)
(0.157177 -0.871028 -0.46541)
(0.157177 -0.83221 -0.531717)
(0.157177 -0.788354 -0.594805)
(0.157177 -0.739727 -0.654293)
(0.157177 -0.686622 -0.709821)
(0.157177 -0.629361 -0.761052)
(0.157177 -0.568291 -0.807676)
(0.157177 -0.50378 -0.849412)
(0.157177 -0.436308 -0.885963)
(0.157177 -0.366111 -0.917201)
(0.157177 -0.293698 -0.942888)
(0.157177 -0.219507 -0.962867)
(0.157177 -0.143987 -0.977017)
(0.157177 -0.0675964 -0.985254)
(0.157177 0.0092039 -0.987528)
(0.157177 0.0859484 -0.983823)
(0.157177 0.162077 -0.97418)
(0.157177 0.237321 -0.958631)
(0.157177 0.311128 -0.93728)
(0.157177 0.383053 -0.910256)
(0.157177 0.452659 -0.877722)
(0.157177 0.519525 -0.839875)
(0.157177 0.583246 -0.796944)
(0.157177 0.643437 -0.749189)
(0.157177 0.699664 -0.696969)
(0.157177 0.75173 -0.640466)
(0.157177 0.799246 -0.580087)
(0.157177 0.841925 -0.516196)
(0.157177 0.879507 -0.449181)
(0.157177 0.911765 -0.379447)
(0.157177 0.938505 -0.307416)
(0.157177 0.959563 -0.233524)
(0.157177 0.974814 -0.158219)
(0.157177 0.984156 -0.0820536)
(0.157177 0.987556 -0.00529496)
(0.157177 0.984979 0.0714957)
(0.157177 0.97644 0.147854)
(0.157177 0.96199 0.223317)
(0.157177 0.941718 0.297428)
(0.157177 0.915745 0.369739)
(0.157177 0.884273 0.439724)
(0.157177 0.847411 0.507138)
(0.157177 0.805421 0.571483)
(0.157177 0.758555 0.632369)
(0.157177 0.707097 0.689426)
(0.157177 0.65136 0.742311)
(0.157177 0.59168 0.790702)
(0.157177 0.528418 0.834308)
(0.157177 0.462045 0.872817)
(0.157177 0.392792 0.906096)
(0.157177 0.321161 0.93389)
(0.157177 0.247587 0.956032)
(0.157177 0.172513 0.972386)
(0.157177 0.096396 0.982855)
(0.157177 0.0196952 0.987374)
(0.157177 -0.0571249 0.985917)
(0.157177 -0.133503 0.978505)
(0.157177 -0.20917 0.965165)
(0.157177 -0.28357 0.945983)
(0.157177 -0.356255 0.921074)
(0.157177 -0.426783 0.890591)
(0.157177 -0.494727 0.854716)
(0.157177 -0.559678 0.813669)
(0.157177 -0.62124 0.767696)
(0.157177 -0.678971 0.717143)
(0.157177 -0.732668 0.662188)
(0.157177 -0.781931 0.603224)
(0.157177 -0.82646 0.54061)
(0.157177 -0.865987 0.474723)
(0.157177 -0.900272 0.405963)
(0.157177 -0.929108 0.334745)
(0.157177 -0.95232 0.261501)
(0.157177 -0.969749 0.18677)
(0.157177 -0.981334 0.110815)
(0.157177 -0.986979 0.0341887)
(0.157177 -0.986649 -0.0426445)
(0.157177 -0.980348 -0.11922)
(0.157177 -0.968113 -0.195073)
(0.157177 -0.950017 -0.269746)
(0.157177 -0.926171 -0.342786)
(0.157177 -0.89676 -0.413662)
(0.157177 -0.861887 -0.482126)
(0.157177 -0.821797 -0.547672)
(0.157177 -0.776733 -0.609902)
(0.157177 -0.726967 -0.668441)
(0.157177 -0.672801 -0.722934)
(0.157177 -0.614563 -0.773051)
(0.157177 -0.552604 -0.818489)
(0.157177 -0.487385 -0.858924)
(0.157177 -0.419136 -0.894215)
(0.157177 -0.348349 -0.924093)
(0.157177 -0.275454 -0.948378)
(0.157177 -0.200892 -0.966922)
(0.157177 -0.125113 -0.979613)
(0.157177 -0.0485774 -0.986375)
(0.157177 0.0282524 -0.987166)
(0.157177 0.104814 -0.981993)
(0.157177 0.180839 -0.970872)
(0.157177 0.255769 -0.953875)
(0.157177 0.329152 -0.931104)
(0.157177 0.400541 -0.902697)
(0.157177 0.469507 -0.868826)
(0.157177 0.53563 -0.829696)
(0.157177 0.598511 -0.785544)
(0.157177 0.657697 -0.736702)
(0.157177 0.712979 -0.683342)
(0.157177 0.763946 -0.625846)
(0.157177 0.810288 -0.564561)
(0.157177 0.851726 -0.499859)
(0.157177 0.888008 -0.432131)
(0.157177 0.918915 -0.361788)
(0.157177 0.94426 -0.289254)
(0.157177 0.963868 -0.215065)
(0.157177 0.977671 -0.139481)
(0.157177 0.985556 -0.0630531)
(0.157177 0.987475 0.0137568)
(0.157177 0.983417 0.0904835)
(0.157177 0.973406 0.166662)
(0.157177 0.957503 0.241833)
(0.157177 0.935805 0.315539)
(0.157177 0.90848 0.387246)
(0.157177 0.875625 0.456701)
(0.157177 0.837471 0.523391)
(0.157177 0.794246 0.586914)
(0.157177 0.746215 0.646884)
(0.157177 0.693666 0.702939)
(0.157177 0.636919 0.754738)
(0.157177 0.576317 0.801969)
(0.157177 0.512309 0.844296)
(0.157177 0.445121 0.881568)
(0.157177 0.375239 0.913505)
(0.157177 0.303086 0.939912)
(0.157177 0.229098 0.96063)
(0.157177 0.153723 0.975533)
(0.157177 0.077418 0.984531)
(0.157177 0.000644208 0.98757)
(0.157177 -0.0760362 0.984639)
(0.157177 -0.152354 0.975748)
(0.157177 -0.227749 0.96095)
(0.157177 -0.301766 0.940336)
(0.157177 -0.373957 0.914031)
(0.157177 -0.443884 0.882192)
(0.157177 -0.511124 0.845014)
(0.157177 -0.57527 0.80272)
(0.157177 -0.635859 0.755631)
(0.157177 -0.692679 0.703911)
(0.157177 -0.745306 0.647931)
(0.157177 -0.793422 0.588028)
(0.157177 -0.836735 0.524566)
(0.157177 -0.874984 0.457929)
(0.157177 -0.907936 0.38852)
(0.157177 -0.935392 0.31676)
(0.157177 -0.957163 0.243176)
(0.157177 -0.973171 0.168028)
(0.157177 -0.983289 0.0918635)
(0.157177 -0.987454 0.0151426)
(0.157177 -0.985643 -0.0616699)
(0.157177 -0.977866 -0.138109)
(0.157177 -0.964169 -0.213712)
(0.157177 -0.944637 -0.288022)
(0.157177 -0.919422 -0.360498)
(0.157177 -0.888614 -0.430884)
(0.157177 -0.852426 -0.498663)
(0.157177 -0.81108 -0.563423)
(0.157177 -0.764823 -0.624773)
(0.157177 -0.713937 -0.682341)
(0.157177 -0.65873 -0.735779)
(0.157177 -0.599535 -0.784763)
(0.157177 -0.536794 -0.828944)
(0.157177 -0.470725 -0.868167)
(0.157177 -0.401808 -0.902134)
(0.157177 -0.330458 -0.930641)
(0.157177 -0.257108 -0.953515)
(0.157177 -0.182201 -0.970617)
(0.157177 -0.106192 -0.981845)
(0.157177 -0.0295403 -0.987129)
(0.157177 0.0471931 -0.986442)
(0.157177 0.123738 -0.979788)
(0.157177 0.199534 -0.967203)
(0.157177 0.274123 -0.948763)
(0.157177 0.347052 -0.924581)
(0.157177 0.417881 -0.894802)
(0.157177 0.48618 -0.859607)
(0.157177 0.551536 -0.819209)
(0.157177 0.613554 -0.773852)
(0.157177 0.671786 -0.723878)
(0.157177 0.726029 -0.669461)
(0.157177 0.775877 -0.610992)
(0.157177 0.821028 -0.548825)
(0.157177 0.86121 -0.483335)
(0.157177 0.896179 -0.41492)
(0.157177 0.925723 -0.343994)
(0.157177 0.949665 -0.270985)
(0.157177 0.967838 -0.196431)
(0.157177 0.98018 -0.120595)
(0.157177 0.986589 -0.0440291)
(0.157177 0.987026 0.0328035)
(0.157177 0.981488 0.109438)
(0.157177 0.97001 0.185409)
(0.157177 0.95266 0.260259)
(0.157177 0.929577 0.333441)
(0.157177 0.900841 0.404699)
(0.157177 0.866652 0.473507)
(0.157177 0.827218 0.53945)
(0.157177 0.782777 0.602127)
(0.157177 0.733597 0.661159)
(0.157177 0.679977 0.716189)
(0.157177 0.622241 0.766884)
(0.157177 0.560819 0.812882)
(0.157177 0.495926 0.854021)
(0.157177 0.428032 0.889991)
(0.157177 0.357547 0.920574)
(0.157177 0.284898 0.945584)
(0.157177 0.210524 0.964871)
(0.157177 0.134876 0.978317)
(0.157177 0.0584111 0.985842)
(0.157177 -0.0183095 0.987401)
(0.157177 -0.0950166 0.982989)
(0.157177 -0.171149 0.972627)
(0.157177 -0.246245 0.956378)
(0.157177 -0.31985 0.93434)
(0.157177 -0.39152 0.906646)
(0.157177 -0.460819 0.873465)
(0.157177 -0.52733 0.834996)
(0.157177 -0.59057 0.791532)
(0.157177 -0.650318 0.743224)
(0.157177 -0.706129 0.690418)
(0.157177 -0.757667 0.633432)
(0.157177 -0.804618 0.572613)
(0.157177 -0.846699 0.508327)
(0.157177 -0.883655 0.440965)
(0.157177 -0.915262 0.370933)
(0.157177 -0.941299 0.298749)
(0.157177 -0.961676 0.224666)
(0.157177 -0.976231 0.149224)
(0.157177 -0.984878 0.0728779)
(0.157177 -0.987563 -0.00390903)
(0.157177 -0.98427 -0.0806723)
(0.157177 -0.975019 -0.156947)
(0.157177 -0.959867 -0.232272)
(0.157177 -0.938935 -0.306099)
(0.157177 -0.912297 -0.378167)
(0.157177 -0.880136 -0.447946)
(0.157177 -0.842648 -0.515014)
(0.157177 -0.80006 -0.578965)
(0.157177 -0.752628 -0.639411)
(0.157177 -0.700641 -0.695986)
(0.157177 -0.644414 -0.748349)
(0.157177 -0.584364 -0.796125)
(0.157177 -0.520703 -0.839145)
(0.157177 -0.45389 -0.877086)
(0.157177 -0.38433 -0.909718)
(0.157177 -0.312444 -0.936843)
(0.157177 -0.238666 -0.958297)
(0.157177 -0.163444 -0.973952)
(0.157177 -0.0872319 -0.98371)
(0.157177 -0.0105898 -0.987514)
(0.157177 0.0662136 -0.985348)
(0.157177 0.142616 -0.977219)
(0.157177 0.218156 -0.963174)
(0.157177 0.292374 -0.943299)
(0.157177 0.364823 -0.917714)
(0.157177 0.435064 -0.886575)
(0.157177 0.502672 -0.850069)
(0.157177 0.567157 -0.808473)
(0.157177 0.628292 -0.761934)
(0.157177 0.685625 -0.710784)
(0.157177 0.738808 -0.655331)
(0.157177 0.787519 -0.595911)
(0.157177 0.831463 -0.532884)
(0.157177 0.870374 -0.466632)
(0.157177 0.904016 -0.397555)
(0.157177 0.932155 -0.326164)
(0.157177 0.95469 -0.252709)
(0.157177 0.971447 -0.177724)
(0.157177 0.982324 -0.101664)
(0.157177 0.987254 -0.0249888)
(0.157177 0.986209 0.051838)
(0.157177 0.979194 0.128351)
(0.157177 0.966253 0.204087)
(0.157177 0.94749 0.278494)
(0.157177 0.922971 0.351311)
(0.157177 0.892866 0.422002)
(0.157177 0.857357 0.490138)
(0.157177 0.816658 0.555307)
(0.157177 0.771015 0.617115)
(0.157177 0.720706 0.675188)
(0.157177 0.666034 0.729173)
(0.157177 0.607408 0.778685)
(0.157177 0.545033 0.82355)
(0.157177 0.479359 0.863429)
(0.157177 0.410784 0.898082)
(0.157177 0.339722 0.9273)
(0.157177 0.266604 0.950904)
(0.157177 0.191871 0.968752)
(0.157177 0.115978 0.980737)
(0.157177 0.03948 0.986781)
(0.157177 -0.0373539 0.986864)
(0.157177 -0.113962 0.980973)
(0.157177 -0.18988 0.969145)
(0.157177 -0.264648 0.95145)
(0.157177 -0.337815 0.927996)
(0.157177 -0.408937 0.898925)
(0.157177 -0.477583 0.864413)
(0.157177 -0.543258 0.824722)
(0.157177 -0.605729 0.779992)
(0.157177 -0.664534 0.730541)
(0.157177 -0.719317 0.676668)
(0.157177 -0.769745 0.618699)
(0.157177 -0.815514 0.556985)
(0.157177 -0.856347 0.491899)
(0.157177 -0.891997 0.423836)
(0.157177 -0.922212 0.353299)
(0.157177 -0.946887 0.280535)
(0.157177 -0.965831 0.206073)
(0.157177 -0.978928 0.130364)
(0.157177 -0.9861 0.0538652)
(0.157177 -0.987304 -0.0229592)
(0.157177 -0.982531 -0.0996447)
(0.157177 -0.97181 -0.175727)
(0.157177 -0.955233 -0.250651)
(0.157177 -0.932855 -0.324155)
(0.157177 -0.904832 -0.395696)
(0.157177 -0.871331 -0.464841)
(0.157177 -0.832556 -0.531174)
(0.157177 -0.788742 -0.594291)
(0.157177 -0.740154 -0.653811)
(0.157177 -0.687085 -0.709373)
(0.157177 -0.629933 -0.760579)
(0.157177 -0.568897 -0.807249)
(0.157177 -0.504418 -0.849033)
(0.157177 -0.436886 -0.885678)
(0.157177 -0.366709 -0.916962)
(0.157177 -0.294313 -0.942696)
(0.157177 -0.220135 -0.962723)
(0.157177 -0.144625 -0.976923)
(0.157177 -0.0683363 -0.985203)
(0.157177 0.00846219 -0.987534)
(0.157177 0.0852095 -0.983888)
(0.157177 0.161441 -0.974286)
(0.157177 0.236695 -0.958786)
(0.157177 0.310517 -0.937483)
(0.157177 0.382459 -0.910506)
(0.157177 0.452086 -0.878017)
(0.157177 0.518894 -0.840265)
(0.157177 0.582647 -0.797382)
(0.157177 0.642874 -0.749672)
(0.157177 0.699209 -0.697425)
(0.157177 0.751312 -0.640956)
(0.157177 0.798868 -0.580608)
(0.157177 0.841588 -0.516745)
(0.157177 0.879213 -0.449755)
(0.157177 0.91148 -0.380132)
(0.157177 0.938273 -0.308121)
(0.157177 0.959388 -0.234245)
(0.157177 0.974695 -0.158951)
(0.157177 0.984102 -0.0826955)
(0.157177 0.987553 -0.00593916)
(0.157177 0.985026 0.0708532)
(0.157177 0.976536 0.147217)
(0.157177 0.962158 0.222594)
(0.157177 0.941941 0.29672)
(0.157177 0.916022 0.369051)
(0.157177 0.884559 0.439147)
(0.157177 0.847742 0.506586)
(0.157177 0.805793 0.570958)
(0.157177 0.758967 0.631874)
(0.157177 0.707547 0.688965)
(0.157177 0.651917 0.741822)
(0.157177 0.592274 0.790258)
(0.157177 0.529045 0.833911)
(0.157177 0.462614 0.872516)
(0.157177 0.393383 0.90584)
(0.157177 0.32177 0.933681)
(0.157177 0.24821 0.95587)
(0.157177 0.173148 0.972273)
(0.157177 0.0971342 0.982782)
(0.157177 0.0204368 0.987359)
(0.157177 -0.0563844 0.98596)
(0.157177 -0.132864 0.978592)
(0.157177 -0.20854 0.965301)
(0.157177 -0.282953 0.946168)
(0.157177 -0.355654 0.921307)
(0.157177 -0.426202 0.890869)
(0.157177 -0.494085 0.855088)
(0.157177 -0.559066 0.814089)
(0.157177 -0.620663 0.768162)
(0.157177 -0.678503 0.717585)
(0.157177 -0.732236 0.662665)
(0.157177 -0.781537 0.603734)
(0.157177 -0.826107 0.541149)
(0.157177 -0.865677 0.475288)
(0.157177 -0.899967 0.406639)
(0.157177 -0.928856 0.335443)
(0.157177 -0.952123 0.262216)
(0.157177 -0.969627 0.187403)
(0.157177 -0.981261 0.111455)
(0.157177 -0.986956 0.0348325)
(0.157177 -0.986677 -0.0420009)
(0.157177 -0.980426 -0.11858)
(0.157177 -0.968259 -0.194346)
(0.157177 -0.95022 -0.269032)
(0.157177 -0.926429 -0.34209)
(0.157177 -0.89703 -0.413077)
(0.157177 -0.862202 -0.481564)
(0.157177 -0.822155 -0.547136)
(0.157177 -0.777131 -0.609396)
(0.157177 -0.727403 -0.667967)
(0.157177 -0.673344 -0.722429)
(0.157177 -0.615143 -0.772589)
(0.157177 -0.553219 -0.818074)
(0.157177 -0.487946 -0.858606)
(0.157177 -0.419719 -0.893941)
(0.157177 -0.348952 -0.923866)
(0.157177 -0.276073 -0.948198)
(0.157177 -0.201522 -0.966791)
(0.157177 -0.125849 -0.979519)
(0.157177 -0.0493182 -0.986338)
(0.157177 0.027511 -0.987187)
(0.157177 0.104174 -0.982061)
(0.157177 0.180206 -0.97099)
(0.157177 0.255147 -0.954042)
(0.157177 0.328544 -0.931319)
(0.157177 0.399952 -0.902958)
(0.157177 0.468854 -0.869179)
(0.157177 0.535007 -0.830098)
(0.157177 0.597921 -0.785994)
(0.157177 0.657216 -0.737131)
(0.157177 0.712533 -0.683807)
(0.157177 0.763537 -0.626344)
(0.157177 0.80992 -0.565089)
(0.157177 0.8514 -0.500414)
(0.157177 0.887683 -0.432798)
(0.157177 0.918643 -0.362478)
(0.157177 0.944043 -0.289963)
(0.157177 0.963728 -0.215694)
(0.157177 0.97758 -0.140119)
(0.157177 0.985514 -0.063696)
(0.157177 0.987483 0.0131127)
(0.157177 0.983475 0.089842)
(0.157177 0.973531 0.165931)
(0.157177 0.957685 0.241113)
(0.157177 0.936042 0.314836)
(0.157177 0.908733 0.386653)
(0.157177 0.875923 0.456129)
(0.157177 0.837812 0.522845)
(0.157177 0.794629 0.586396)
(0.157177 0.746637 0.646397)
(0.157177 0.694194 0.702417)
(0.157177 0.637486 0.75426)
(0.157177 0.576919 0.801536)
(0.157177 0.51286 0.843961)
(0.157177 0.445696 0.881278)
(0.157177 0.375835 0.91326)
(0.157177 0.303699 0.939714)
(0.157177 0.229724 0.96048)
(0.157177 0.154456 0.975417)
(0.157177 0.0781574 0.984473)
(0.157177 0.00138595 0.98757)
(0.157177 -0.0753939 0.984688)
(0.157177 -0.151717 0.975847)
(0.157177 -0.227123 0.961099)
(0.157177 -0.301153 0.940533)
(0.157177 -0.37336 0.914274)
(0.157177 -0.443221 0.882525)
(0.157177 -0.510489 0.845397)
(0.157177 -0.574667 0.803152)
(0.157177 -0.635366 0.756046)
(0.157177 -0.69222 0.704363)
(0.157177 -0.744883 0.648417)
(0.157177 -0.793038 0.588546)
(0.157177 -0.836393 0.525112)
(0.157177 -0.874685 0.4585)
(0.157177 -0.907644 0.389202)
(0.157177 -0.935154 0.317462)
(0.157177 -0.957004 0.2438)
(0.157177 -0.973061 0.168663)
(0.157177 -0.983229 0.0925049)
(0.157177 -0.987444 0.0157868)
(0.157177 -0.985683 -0.0610269)
(0.157177 -0.977969 -0.137375)
(0.157177 -0.96433 -0.212988)
(0.157177 -0.944853 -0.287313)
(0.157177 -0.919657 -0.359898)
(0.157177 -0.888895 -0.430305)
(0.157177 -0.852752 -0.498107)
(0.157177 -0.811447 -0.562894)
(0.157177 -0.765231 -0.624274)
(0.157177 -0.714382 -0.681875)
(0.157177 -0.659282 -0.735284)
(0.157177 -0.600125 -0.784312)
(0.157177 -0.537334 -0.828594)
(0.157177 -0.471292 -0.867859)
(0.157177 -0.402396 -0.901872)
(0.157177 -0.331065 -0.930425)
(0.157177 -0.25773 -0.953347)
(0.157177 -0.18293 -0.97048)
(0.157177 -0.10693 -0.981764)
(0.157177 -0.0302817 -0.987106)
(0.157177 0.0465496 -0.986473)
(0.157177 0.123099 -0.979868)
(0.157177 0.198903 -0.967333)
(0.157177 0.273504 -0.948942)
(0.157177 0.346449 -0.924807)
(0.157177 0.417297 -0.895075)
(0.157177 0.485534 -0.859972)
(0.157177 0.55092 -0.819623)
(0.157177 0.612972 -0.774313)
(0.157177 0.671314 -0.724316)
(0.157177 0.725592 -0.669934)
(0.157177 0.775478 -0.611498)
(0.157177 0.82067 -0.54936)
(0.157177 0.860847 -0.483982)
(0.157177 0.895867 -0.415593)
(0.157177 0.925465 -0.344689)
(0.157177 0.949461 -0.271698)
(0.157177 0.96771 -0.197063)
(0.157177 0.980101 -0.121235)
(0.157177 0.98656 -0.0446727)
(0.157177 0.987047 0.0321597)
(0.157177 0.98157 0.1087)
(0.157177 0.970149 0.184681)
(0.157177 0.952855 0.259543)
(0.157177 0.929794 0.332834)
(0.157177 0.901105 0.404111)
(0.157177 0.866961 0.472942)
(0.157177 0.82757 0.53891)
(0.157177 0.783169 0.601616)
(0.157177 0.734093 0.660608)
(0.157177 0.680515 0.715678)
(0.157177 0.622817 0.766417)
(0.157177 0.561349 0.812516)
(0.157177 0.496483 0.853698)
(0.157177 0.428613 0.889712)
(0.157177 0.358147 0.92034)
(0.157177 0.285514 0.945398)
(0.157177 0.211248 0.964712)
(0.157177 0.13561 0.978215)
(0.157177 0.0591515 0.985797)
(0.157177 -0.0176654 0.987412)
(0.157177 -0.0943754 0.983051)
(0.157177 -0.170514 0.972739)
(0.157177 -0.245621 0.956539)
(0.157177 -0.319241 0.934549)
(0.157177 -0.390839 0.90694)
(0.157177 -0.460163 0.873811)
(0.157177 -0.526702 0.835392)
(0.157177 -0.590053 0.791917)
(0.157177 -0.649833 0.743648)
(0.157177 -0.705679 0.690878)
(0.157177 -0.757253 0.633927)
(0.157177 -0.804244 0.573138)
(0.157177 -0.846317 0.508963)
(0.157177 -0.883323 0.441628)
(0.157177 -0.914983 0.37162)
(0.157177 -0.941104 0.299363)
(0.157177 -0.961529 0.225294)
(0.157177 -0.976134 0.149861)
(0.157177 -0.98483 0.0735204)
(0.157177 -0.987565 -0.00326483)
(0.157177 -0.98433 -0.0799331)
(0.157177 -0.975137 -0.156215)
(0.157177 -0.960041 -0.231551)
(0.157177 -0.939135 -0.305486)
(0.157177 -0.912543 -0.377572)
(0.157177 -0.880428 -0.447372)
(0.157177 -0.842984 -0.514464)
(0.157177 -0.800437 -0.578443)
(0.157177 -0.753108 -0.638845)
(0.157177 -0.701164 -0.69546)
(0.157177 -0.644976 -0.747865)
(0.157177 -0.584883 -0.795743)
(0.157177 -0.52125 -0.838805)
(0.157177 -0.454462 -0.876789)
(0.157177 -0.384923 -0.909467)
(0.157177 -0.313055 -0.936639)
(0.157177 -0.239386 -0.958118)
(0.157177 -0.164175 -0.973829)
(0.157177 -0.0879707 -0.983645)
(0.157177 -0.0112339 -0.987507)
(0.157177 0.0655708 -0.985391)
(0.157177 0.141979 -0.977311)
(0.157177 0.217527 -0.963316)
(0.157177 0.291759 -0.943489)
(0.157177 0.364134 -0.917988)
(0.157177 0.434398 -0.886901)
(0.157177 0.502033 -0.850446)
(0.157177 0.566629 -0.808843)
(0.157177 0.627795 -0.762344)
(0.157177 0.685161 -0.711231)
(0.157177 0.73838 -0.655812)
(0.157177 0.78713 -0.596424)
(0.157177 0.831062 -0.533508)
(0.157177 0.870023 -0.467285)
(0.157177 0.903718 -0.398234)
(0.157177 0.931942 -0.326772)
(0.157177 0.954525 -0.253332)
(0.157177 0.971331 -0.178358)
(0.157177 0.982257 -0.102305)
(0.157177 0.987238 -0.0256328)
(0.157177 0.986248 0.0510973)
(0.157177 0.97929 0.127616)
(0.157177 0.966406 0.203361)
(0.157177 0.947671 0.277876)
(0.157177 0.9232 0.350709)
(0.157177 0.893141 0.421419)
(0.157177 0.857676 0.489578)
(0.157177 0.81702 0.554774)
(0.157177 0.771479 0.616536)
(0.157177 0.721213 0.674646)
(0.157177 0.666582 0.728673)
(0.157177 0.607916 0.778289)
)
;

boundaryField
{
    left
    {
        type            calculated;
        value           uniform (0.157177 1.49448e-35 0.98757);
    }
    right
    {
        type            calculated;
        value           uniform (0.157177 0.54557 0.823194);
    }
    beam
    {
        type            empty;
    }
}


// ************************************************************************* //
