/*--------------------------------*- C++ -*----------------------------------*\
| =========                 |                                                 |
| \\      /  F ield         | OpenFOAM: The Open Source CFD Toolbox           |
|  \\    /   O peration     | Version:  2312                                  |
|   \\  /    A nd           | Website:  www.openfoam.com                      |
|    \\/     M anipulation  |                                                 |
\*---------------------------------------------------------------------------*/
FoamFile
{
    version     2.0;
    format      ascii;
    arch        "LSB;label=32;scalar=64";
    class       surfaceVectorField;
    location    "0.24/beam";
    object      Gamma;
}
// * * * * * * * * * * * * * * * * * * * * * * * * * * * * * * * * * * * * * //

dimensions      [0 0 0 0 0 0 0];

oriented        oriented;

internalField   nonuniform List<vector> 
59
(
(0.004961209519 -1.869983633e-17 -2.705701634e-08)
(0.004961209599 -1.781626233e-17 -2.681573429e-08)
(0.004961209734 -1.63463625e-17 -2.641673742e-08)
(0.004961209929 -1.429392785e-17 -2.586498798e-08)
(0.004961210189 -1.166655595e-17 -2.516751452e-08)
(0.004961210521 -8.476556697e-18 -2.433259062e-08)
(0.004961210933 -4.7392003e-18 -2.336961588e-08)
(0.004961211434 -4.787921198e-19 -2.229047229e-08)
(0.004961212033 4.273890697e-18 -2.110719483e-08)
(0.004961212741 9.478802153e-18 -1.983248026e-08)
(0.004961213566 1.508596577e-17 -1.848046424e-08)
(0.004961214519 2.102909365e-17 -1.706439807e-08)
(0.00496121561 2.72325098e-17 -1.559942361e-08)
(0.004961216847 3.360895992e-17 -1.409870341e-08)
(0.004961218239 4.005798829e-17 -1.257699112e-08)
(0.004961219791 4.645378992e-17 -1.104750218e-08)
(0.004961221511 5.268096926e-17 -9.524159141e-09)
(0.004961223403 5.86124143e-17 -8.020196593e-09)
(0.00496122547 6.409267944e-17 -6.54955304e-09)
(0.004961227715 6.89835006e-17 -5.125450014e-09)
(0.004961230138 7.313780741e-17 -3.761811297e-09)
(0.004961232739 7.641305496e-17 -2.473762722e-09)
(0.004961235516 7.868545838e-17 -1.276561794e-09)
(0.004961238467 7.982827979e-17 -1.858295452e-10)
(0.004961241588 7.974268118e-17 7.807247321e-10)
(0.004961244877 7.835407435e-17 1.606494417e-09)
(0.004961248326 7.560420497e-17 2.273479874e-09)
(0.004961251934 7.148102266e-17 2.766029674e-09)
(0.004961255694 6.603904381e-17 3.069721251e-09)
(0.004961259606 5.921178039e-17 3.174787351e-09)
(0.004961263665 5.117765484e-17 3.077325599e-09)
(0.004961267872 4.216993546e-17 2.781908909e-09)
(0.004961272228 3.226158474e-17 2.304887888e-09)
(0.004961276737 2.169551216e-17 1.676079445e-09)
(0.004961281407 1.077774081e-17 9.430399692e-10)
(0.00496128625 -1.807604576e-19 1.710902829e-10)
(0.004961291279 -1.081643289e-17 -5.536284201e-10)
(0.004961296517 -2.074784697e-17 -1.126258932e-09)
(0.004961301987 -2.956367871e-17 -1.425442072e-09)
(0.00496130772 -3.686302118e-17 -1.319211033e-09)
(0.004961313747 -4.224659707e-17 -6.748909103e-10)
(0.004961320108 -4.537174451e-17 6.304540189e-10)
(0.004961326838 -4.594916975e-17 2.689483297e-09)
(0.004961333979 -4.379877798e-17 5.549528848e-09)
(0.004961341567 -3.887072343e-17 9.188200463e-09)
(0.004961349637 -3.124561988e-17 1.349963173e-08)
(0.004961358214 -2.117397525e-17 1.827587926e-08)
(0.004961367323 -9.027652881e-18 2.321265229e-08)
(0.004961376973 4.724697321e-18 2.791692265e-08)
(0.004961387172 1.965669488e-17 3.195472074e-08)
(0.004961397909 3.544108318e-17 3.490210947e-08)
(0.004961409177 5.206256777e-17 3.644115952e-08)
(0.004961420949 6.993208385e-17 3.644132314e-08)
(0.004961433206 8.996254692e-17 3.503827782e-08)
(0.004961445912 1.133222737e-16 3.264970216e-08)
(0.004961459045 1.40771123e-16 2.988315509e-08)
(0.004961472574 1.686018847e-16 2.725520851e-08)
(0.004961486486 1.587099434e-16 2.412570856e-08)
(0.004961500765 -1.721142915e-16 1.191330711e-08)
)
;

boundaryField
{
    left
    {
        type            calculated;
        value           uniform (-0.004961209493 -4.51532257e-14 2.713777976e-08);
    }
    right
    {
        type            calculated;
        value           uniform (0.004961515414 -4.827070318e-14 -7.959629908e-08);
    }
    beam
    {
        type            empty;
        value           nonuniform List<vector> 0();
    }
}


// ************************************************************************* //
