/*--------------------------------*- C++ -*----------------------------------*\
| =========                 |                                                 |
| \\      /  F ield         | OpenFOAM: The Open Source CFD Toolbox           |
|  \\    /   O peration     | Version:  2312                                  |
|   \\  /    A nd           | Website:  www.openfoam.com                      |
|    \\/     M anipulation  |                                                 |
\*---------------------------------------------------------------------------*/
FoamFile
{
    version     2.0;
    format      ascii;
    arch        "LSB;label=32;scalar=64";
    class       surfaceVectorField;
    location    "0.24/beam";
    object      K;
}
// * * * * * * * * * * * * * * * * * * * * * * * * * * * * * * * * * * * * * //

dimensions      [0 -1 0 0 0 0 0];

oriented        oriented;

internalField   nonuniform List<vector> 
59
(
(2.895359797e-17 -0.0003014277628 2.096534272e-13)
(5.795328701e-17 -0.000601064046 4.127622238e-13)
(8.7042566e-17 -0.0008971391271 6.027817277e-13)
(1.16259312e-16 -0.001187926208 7.732108787e-13)
(1.456334749e-16 -0.001471765176 9.176138975e-13)
(1.751834916e-16 -0.001747081024 1.02966029e-12)
(2.049144969e-16 -0.002012397062 1.103180102e-12)
(2.348163135e-16 -0.002266354961 1.132212802e-12)
(2.648581302e-16 -0.00250772941 1.111112551e-12)
(2.949919294e-16 -0.002735432668 1.034632871e-12)
(3.251458698e-16 -0.00294852623 8.980184625e-13)
(3.552230036e-16 -0.003146223931 6.971638065e-13)
(3.851030938e-16 -0.00332789751 4.287484162e-13)
(4.146420418e-16 -0.00349307614 9.036598267e-14)
(4.436731148e-16 -0.00364144426 -3.193500345e-13)
(4.719981744e-16 -0.003772841867 -8.005090659e-13)
(4.994172014e-16 -0.003887259899 -1.351880598e-12)
(5.257095916e-16 -0.003984840334 -1.970879857e-12)
(5.506289575e-16 -0.004065876272 -2.653348293e-12)
(5.739332268e-16 -0.004130811865 -3.393503063e-12)
(5.95373684e-16 -0.004180242255 -4.18396972e-12)
(6.147058701e-16 -0.004214923361 -5.015738346e-12)
(6.317011161e-16 -0.004235781616 -5.878364701e-12)
(6.461398452e-16 -0.004243915243 -6.760010183e-12)
(6.578206031e-16 -0.004240606247 -7.647540871e-12)
(6.665763455e-16 -0.004227328286 -8.526872371e-12)
(6.722605198e-16 -0.004205747546 -9.383177677e-12)
(6.747781976e-16 -0.004177717321 -1.020126542e-11)
(6.740774491e-16 -0.00414525831 -1.096615237e-11)
(6.700537479e-16 -0.004110525659 -1.166279054e-11)
(6.628189001e-16 -0.004075750755 -1.227677195e-11)
(6.5254057e-16 -0.004043161142 -1.27959699e-11)
(6.392774095e-16 -0.004014868217 -1.320995359e-11)
(6.232209518e-16 -0.003992726527 -1.351005906e-11)
(6.046583379e-16 -0.003978160442 -1.3690671e-11)
(5.839037767e-16 -0.003971966495 -1.374960199e-11)
(5.613494683e-16 -0.003974098858 -1.368842149e-11)
(5.374117473e-16 -0.003983449374 -1.351283982e-11)
(5.125642243e-16 -0.00399765158 -1.323297727e-11)
(4.872676094e-16 -0.004012929954 -1.286347708e-11)
(4.619980598e-16 -0.004024036759 -1.24234256e-11)
(4.37166729e-16 -0.004024302346 -1.193604227e-11)
(4.131369022e-16 -0.004005857519 -1.142806667e-11)
(3.901417369e-16 -0.003960053988 -1.092883613e-11)
(3.683084643e-16 -0.003878104417 -1.046897418e-11)
(3.476109105e-16 -0.00375193416 -1.007893387e-11)
(3.278941734e-16 -0.003575214201 -9.787325914e-12)
(3.088611017e-16 -0.003344463938 -9.619299026e-12)
(2.901363212e-16 -0.003060082614 -9.595326934e-12)
(2.712868326e-16 -0.002727069082 -9.730901877e-12)
(2.518728041e-16 -0.002355196761 -1.003731938e-11)
(2.31493196e-16 -0.001958365685 -1.052397092e-11)
(2.098605992e-16 -0.001552974034 -1.120244141e-11)
(1.868015123e-16 -0.001155390867 -1.209167586e-11)
(1.62305019e-16 -0.0007789088714 -1.322221189e-11)
(1.364675437e-16 -0.0004311133224 -1.46353384e-11)
(1.093356138e-16 -0.0001133294975 -1.635607783e-11)
(8.016331248e-17 0.0001724698872 -1.817805226e-11)
(4.52583483e-17 0.0003732908235 -1.811647706e-11)
)
;

boundaryField
{
    left
    {
        type            calculated;
        value           uniform (1.724824675e-31 5.776620963e-40 -2.430030848e-33);
    }
    right
    {
        type            calculated;
        value           uniform (-2.417374518e-31 -1.249062218e-30 2.548024185e-32);
    }
    beam
    {
        type            empty;
        value           nonuniform List<vector> 0();
    }
}


// ************************************************************************* //
