/*--------------------------------*- C++ -*----------------------------------*\
| =========                 |                                                 |
| \\      /  F ield         | OpenFOAM: The Open Source CFD Toolbox           |
|  \\    /   O peration     | Version:  2312                                  |
|   \\  /    A nd           | Website:  www.openfoam.com                      |
|    \\/     M anipulation  |                                                 |
\*---------------------------------------------------------------------------*/
FoamFile
{
    version     2.0;
    format      ascii;
    arch        "LSB;label=32;scalar=64";
    class       surfaceVectorField;
    location    "0.24/beam";
    object      M;
}
// * * * * * * * * * * * * * * * * * * * * * * * * * * * * * * * * * * * * * //

dimensions      [1 2 -2 0 0 0 0];

oriented        oriented;

internalField   nonuniform List<vector> 
59
(
(1.729684871e-17 -1.818170065e-07 1.258018257e-16)
(3.416019797e-17 -3.625534176e-07 2.476770888e-16)
(5.015705612e-17 -5.411417615e-07 3.61699188e-16)
(6.485816629e-17 -7.165404579e-07 4.639676404e-16)
(7.783989637e-17 -8.877481496e-07 5.506210688e-16)
(8.868719424e-17 -1.053814815e-06 6.178611823e-16)
(9.699741266e-17 -1.213849734e-06 6.619859068e-16)
(1.023838154e-16 -1.367033584e-06 6.794186966e-16)
(1.044824933e-16 -1.512627272e-06 6.667716773e-16)
(1.029578174e-16 -1.649974689e-06 6.208964324e-16)
(9.750838266e-17 -1.778509743e-06 5.389390833e-16)
(8.787691294e-17 -1.897758228e-06 4.184354505e-16)
(7.385866034e-17 -2.007341188e-06 2.573922085e-16)
(5.530924271e-17 -2.106974625e-06 5.436439041e-17)
(3.215213502e-17 -2.196468198e-06 -1.914692309e-16)
(4.391733156e-18 -2.275725394e-06 -4.801756968e-16)
(-2.788206872e-17 -2.344740749e-06 -8.110181113e-16)
(-6.449355944e-17 -2.403599902e-06 -1.182446994e-15)
(-1.05168368e-16 -2.452479645e-06 -1.591968491e-15)
(-1.495311194e-16 -2.491647886e-06 -2.036113988e-15)
(-1.971082677e-16 -2.521463605e-06 -2.510459638e-15)
(-2.473261418e-16 -2.542382763e-06 -3.009599955e-15)
(-2.995239711e-16 -2.55496417e-06 -3.527268423e-15)
(-3.529571571e-16 -2.55987026e-06 -4.0563614e-15)
(-4.068040133e-16 -2.55787432e-06 -4.588997459e-15)
(-4.601873769e-16 -2.549865239e-06 -5.116724263e-15)
(-5.121879149e-16 -2.53684804e-06 -5.630643237e-15)
(-5.618676387e-16 -2.5199406e-06 -6.121636521e-15)
(-6.083051157e-16 -2.500361779e-06 -6.58071052e-15)
(-6.505797593e-16 -2.47941153e-06 -6.998832118e-15)
(-6.878149905e-16 -2.458435795e-06 -7.367351637e-15)
(-7.192774128e-16 -2.438778197e-06 -7.678988006e-15)
(-7.443422397e-16 -2.421712301e-06 -7.927477506e-15)
(-7.62498167e-16 -2.408356743e-06 -8.107616518e-15)
(-7.73424435e-16 -2.399570684e-06 -8.21603107e-15)
(-7.770135247e-16 -2.395834582e-06 -8.251404771e-15)
(-7.73390335e-16 -2.397120794e-06 -8.21467663e-15)
(-7.629342044e-16 -2.402760894e-06 -8.109271928e-15)
(-7.462932302e-16 -2.411327466e-06 -7.941264224e-15)
(-7.243886661e-16 -2.420543167e-06 -7.719443612e-15)
(-6.984068966e-16 -2.427242637e-06 -7.455269185e-15)
(-6.697772045e-16 -2.427402835e-06 -7.16268327e-15)
(-6.401307881e-16 -2.416277173e-06 -6.857743615e-15)
(-6.112412355e-16 -2.388649125e-06 -6.55806956e-15)
(-5.849419585e-16 -2.339218291e-06 -6.282054316e-15)
(-5.630356168e-16 -2.263114158e-06 -6.047989737e-15)
(-5.471917771e-16 -2.156519153e-06 -5.873061576e-15)
(-5.388494125e-16 -2.017333825e-06 -5.772375814e-15)
(-5.391454157e-16 -1.845798992e-06 -5.758229008e-15)
(-5.488991127e-16 -1.644929891e-06 -5.83992302e-15)
(-5.686637098e-16 -1.420621714e-06 -6.024235356e-15)
(-5.988691428e-16 -1.181258764e-06 -6.316795651e-15)
(-6.400726585e-16 -9.367321959e-07 -6.72454687e-15)
(-6.932726498e-16 -6.969155956e-07 -7.258849586e-15)
(-7.601668517e-16 -4.698269265e-07 -7.938026302e-15)
(-8.431115728e-16 -2.600415205e-07 -8.786859327e-15)
(-9.435586342e-16 -6.835876627e-08 -9.820370007e-15)
(-1.049611718e-15 1.040314214e-07 -1.09146408e-14)
(-1.046604134e-15 2.251637986e-07 -1.087789008e-14)
)
;

boundaryField
{
    left
    {
        type            calculated;
        value           uniform (2.068069342e-34 3.531719425e-43 -2.300780466e-35);
    }
    right
    {
        type            calculated;
        value           uniform (-2.888149683e-34 -7.534168493e-34 4.321064691e-35);
    }
    beam
    {
        type            empty;
        value           nonuniform List<vector> 0();
    }
}


// ************************************************************************* //
