/*--------------------------------*- C++ -*----------------------------------*\
| =========                 |                                                 |
| \\      /  F ield         | OpenFOAM: The Open Source CFD Toolbox           |
|  \\    /   O peration     | Version:  2312                                  |
|   \\  /    A nd           | Website:  www.openfoam.com                      |
|    \\/     M anipulation  |                                                 |
\*---------------------------------------------------------------------------*/
FoamFile
{
    version     2.0;
    format      ascii;
    arch        "LSB;label=32;scalar=64";
    class       pointVectorField;
    location    "0.24/beam";
    object      pointW;
}
// * * * * * * * * * * * * * * * * * * * * * * * * * * * * * * * * * * * * * //

dimensions      [0 1 0 0 0 0 0];

internalField   nonuniform List<vector> 
1952
(
(-0.0004142669559 -1.004731414e-14 2.150997003e-05)
(-0.0004063068163 -9.854205126e-15 2.109665596e-05)
(-0.0003827329552 -9.28250532e-15 1.987263111e-05)
(-0.0003444505458 -8.353994579e-15 1.788489478e-05)
(-0.0002929312715 -7.104559996e-15 1.520986113e-05)
(-0.0002301542926 -5.581906465e-15 1.195029405e-05)
(-0.0001585327143 -3.845014585e-15 8.231489107e-06)
(-8.081944391e-05 -1.960237528e-15 4.196385431e-06)
(9.163180718e-14 0 5.60318179e-16)
(8.081944409e-05 1.960237528e-15 -4.19638543e-06)
(0.0001585327144 3.845014585e-15 -8.231489106e-06)
(0.0002301542928 5.581906465e-15 -1.195029405e-05)
(0.0002929312716 7.104559996e-15 -1.520986113e-05)
(0.0003444505459 8.353994579e-15 -1.788489478e-05)
(0.0003827329553 9.28250532e-15 -1.987263111e-05)
(0.0004063068164 9.854205126e-15 -2.109665596e-05)
(0.0004142669559 1.004731414e-14 -2.150997003e-05)
(0.0004063068163 9.854205126e-15 -2.109665596e-05)
(0.0003827329552 9.28250532e-15 -1.987263111e-05)
(0.0003444505458 8.353994579e-15 -1.788489478e-05)
(0.0002929312715 7.104559996e-15 -1.520986113e-05)
(0.0002301542926 5.581906465e-15 -1.195029405e-05)
(0.0001585327143 3.845014585e-15 -8.231489107e-06)
(8.081944391e-05 1.960237528e-15 -4.196385431e-06)
(-9.163176788e-14 0 -5.603202195e-16)
(-8.081944409e-05 -1.960237528e-15 4.19638543e-06)
(-0.0001585327144 -3.845014585e-15 8.231489106e-06)
(-0.0002301542928 -5.581906465e-15 1.195029405e-05)
(-0.0002929312716 -7.104559996e-15 1.520986113e-05)
(-0.0003444505459 -8.353994579e-15 1.788489478e-05)
(-0.0003827329553 -9.28250532e-15 1.987263111e-05)
(-0.0004063068164 -9.854205126e-15 2.109665596e-05)
(-0.0004338373747 1.004211224e-12 -0.004586512909)
(-0.0004258777452 1.004404242e-12 -0.00458692617)
(-0.0004023053948 1.00497605e-12 -0.004588150037)
(-0.0003640254387 1.005904127e-12 -0.004590137518)
(-0.0003125094659 1.007153562e-12 -0.004592812208)
(-0.0002497365101 1.008676215e-12 -0.004596071356)
(-0.0001781195215 1.010413107e-12 -0.004599789683)
(-0.0001004112314 1.012297884e-12 -0.004603824268)
(-1.959696661e-05 1.014258122e-12 -0.004608020115)
(6.121729815e-05 1.016218359e-12 -0.004612215961)
(0.0001389255883 1.018102269e-12 -0.004616250546)
(0.0002105425768 1.019839161e-12 -0.004619968873)
(0.0002733155327 1.021361815e-12 -0.004623228021)
(0.0003248315054 1.022611249e-12 -0.004625902711)
(0.0003631114615 1.02353976e-12 -0.004627890192)
(0.0003866838119 1.024111568e-12 -0.00462911406)
(0.0003946434413 1.024304627e-12 -0.004629527321)
(0.0003866838118 1.024111568e-12 -0.00462911406)
(0.0003631114614 1.02353976e-12 -0.004627890192)
(0.0003248315053 1.022611249e-12 -0.004625902711)
(0.0002733155325 1.021361815e-12 -0.004623228021)
(0.0002105425767 1.019839161e-12 -0.004619968873)
(0.0001389255881 1.018102269e-12 -0.004616250546)
(6.121729797e-05 1.016218359e-12 -0.004612215961)
(-1.959696679e-05 1.014258122e-12 -0.004608020115)
(-0.0001004112315 1.012297884e-12 -0.004603824268)
(-0.0001781195217 1.010413107e-12 -0.004599789683)
(-0.0002497365102 1.008676215e-12 -0.004596071356)
(-0.0003125094661 1.007153562e-12 -0.004592812208)
(-0.0003640254388 1.005904127e-12 -0.004590137518)
(-0.0004023053949 1.00497605e-12 -0.004588150037)
(-0.0004258777453 1.004404242e-12 -0.00458692617)
(-0.0004532934496 2.017882313e-12 -0.009193951548)
(-0.0004453353474 2.018075269e-12 -0.00919436465)
(-0.0004217675202 2.018646968e-12 -0.009195588047)
(-0.0003834949094 2.019575479e-12 -0.009197574763)
(-0.0003319888217 2.02082448e-12 -0.009200248424)
(-0.000269227911 2.0223467e-12 -0.009203506318)
(-0.0001976246646 2.024083158e-12 -0.009207223214)
(-0.0001199312854 2.025967068e-12 -0.009211256247)
(-3.913252762e-05 2.027926438e-12 -0.009215450479)
(4.166623016e-05 2.029885808e-12 -0.009219644711)
(0.0001193596094 2.031771452e-12 -0.009223677744)
(0.0001909628557 2.033507911e-12 -0.00922739464)
(0.0002537237664 2.035030131e-12 -0.009230652534)
(0.000305229854 2.036279131e-12 -0.009233326195)
(0.0003435024648 2.037207642e-12 -0.009235312911)
(0.000367070292 2.037778908e-12 -0.009236536308)
(0.0003750283941 2.037972048e-12 -0.00923694941)
(0.000367070292 2.037778908e-12 -0.009236536308)
(0.0003435024647 2.037207642e-12 -0.009235312911)
(0.0003052298539 2.036279131e-12 -0.009233326195)
(0.0002537237663 2.035030131e-12 -0.009230652534)
(0.0001909628556 2.033507911e-12 -0.00922739464)
(0.0001193596092 2.031771452e-12 -0.009223677744)
(4.166622998e-05 2.029885808e-12 -0.009219644711)
(-3.91325278e-05 2.027926438e-12 -0.009215450479)
(-0.0001199312856 2.025967068e-12 -0.009211256247)
(-0.0001976246648 2.024083158e-12 -0.009207223214)
(-0.0002692279111 2.0223467e-12 -0.009203506318)
(-0.0003319888218 2.02082448e-12 -0.009200248424)
(-0.0003834949095 2.019575479e-12 -0.009197574763)
(-0.0004217675202 2.018646968e-12 -0.009195588047)
(-0.0004453353475 2.018075269e-12 -0.00919436465)
(-0.0004725746364 3.032364348e-12 -0.01380021964)
(-0.0004646190698 3.032557278e-12 -0.01380063248)
(-0.0004410587513 3.033128653e-12 -0.0138018551)
(-0.0004027983343 3.034056513e-12 -0.01380384054)
(-0.0003513086566 3.035305514e-12 -0.0138065125)
(-0.0002885677417 3.0368273e-12 -0.01380976831)
(-0.0002169873084 3.038563325e-12 -0.01381348283)
(-0.0001393186825 3.040446367e-12 -0.01381751329)
(-5.85456675e-05 3.042405737e-12 -0.01382170484)
(2.222734754e-05 3.044365107e-12 -0.01382589639)
(9.989597336e-05 3.046249017e-12 -0.01382992685)
(0.0001714764067 3.047985041e-12 -0.01383364137)
(0.0002342173216 3.049506828e-12 -0.01383689719)
(0.0002857069992 3.050755829e-12 -0.01383956914)
(0.0003239674162 3.051683689e-12 -0.01384155459)
(0.0003475277346 3.052255063e-12 -0.0138427772)
(0.0003554833013 3.05244799e-12 -0.01384319004)
(0.0003475277346 3.052255063e-12 -0.0138427772)
(0.0003239674161 3.051683689e-12 -0.01384155459)
(0.0002857069991 3.050755829e-12 -0.01383956914)
(0.0002342173214 3.049506828e-12 -0.01383689719)
(0.0001714764066 3.047985041e-12 -0.01383364137)
(9.989597319e-05 3.046249017e-12 -0.01382992685)
(2.222734736e-05 3.044365107e-12 -0.01382589639)
(-5.854566768e-05 3.042405737e-12 -0.01382170484)
(-0.0001393186827 3.040446367e-12 -0.01381751329)
(-0.0002169873085 3.038563325e-12 -0.01381348283)
(-0.0002885677419 3.0368273e-12 -0.01380976831)
(-0.0003513086567 3.035305514e-12 -0.0138065125)
(-0.0004027983344 3.034056513e-12 -0.01380384054)
(-0.0004410587514 3.033128653e-12 -0.0138018551)
(-0.0004646190698 3.032557278e-12 -0.01380063248)
(-0.0004916214693 4.048029934e-12 -0.01840473781)
(-0.0004836694314 4.048222803e-12 -0.01840515028)
(-0.000460119563 4.048794069e-12 -0.01840637181)
(-0.0004218761162 4.049721929e-12 -0.01840835549)
(-0.0003704092766 4.050970063e-12 -0.01841102507)
(-0.0003076961903 4.052490982e-12 -0.01841427799)
(-0.0002361475062 4.054226573e-12 -0.01841798921)
(-0.00015851333 4.056108747e-12 -0.01842201608)
(-7.777614152e-05 4.05806725e-12 -0.0184262039)
(2.961046922e-06 4.060025753e-12 -0.01843039173)
(8.05952231e-05 4.061908795e-12 -0.0184344186)
(0.0001521439072 4.063644386e-12 -0.01843812982)
(0.0002148569935 4.065165305e-12 -0.01844138274)
(0.0002663238331 4.066413439e-12 -0.01844405231)
(0.0003045672798 4.067341299e-12 -0.01844603599)
(0.0003281171482 4.067912131e-12 -0.01844725752)
(0.0003360691861 4.068105083e-12 -0.01844766999)
(0.0003281171481 4.067912131e-12 -0.01844725752)
(0.0003045672797 4.067341299e-12 -0.01844603599)
(0.000266323833 4.066413439e-12 -0.01844405231)
(0.0002148569934 4.065165305e-12 -0.01844138274)
(0.000152143907 4.063644386e-12 -0.01843812982)
(8.059522293e-05 4.061908795e-12 -0.0184344186)
(2.961046741e-06 4.060025753e-12 -0.01843039173)
(-7.777614171e-05 4.05806725e-12 -0.0184262039)
(-0.0001585133302 4.056108747e-12 -0.01842201608)
(-0.0002361475063 4.054226573e-12 -0.01841798921)
(-0.0003076961904 4.052490982e-12 -0.01841427799)
(-0.0003704092768 4.050970063e-12 -0.01841102507)
(-0.0004218761163 4.049721929e-12 -0.01840835549)
(-0.000460119563 4.048794069e-12 -0.01840637181)
(-0.0004836694314 4.048222803e-12 -0.01840515028)
(-0.0005103759224 5.065213083e-12 -0.02300693695)
(-0.0005024283856 5.065405886e-12 -0.02300734895)
(-0.0004788918474 5.065976718e-12 -0.0230085691)
(-0.0004406700479 5.066903928e-12 -0.02301055053)
(-0.0003892323406 5.068151628e-12 -0.02301321707)
(-0.0003265547523 5.069671679e-12 -0.0230164663)
(-0.0002550465675 5.071406402e-12 -0.02302017331)
(-0.0001774563353 5.073289011e-12 -0.02302419561)
(-9.676484724e-05 5.075245779e-12 -0.02302837868)
(-1.60733592e-05 5.077202547e-12 -0.02303256176)
(6.1516873e-05 5.079084289e-12 -0.02303658406)
(0.0001330250577 5.080819012e-12 -0.02304029107)
(0.000195702646 5.082339063e-12 -0.02304354029)
(0.0002471403533 5.083586763e-12 -0.02304620684)
(0.0002853621528 5.084513539e-12 -0.02304818827)
(0.000308898691 5.085084589e-12 -0.02304940841)
(0.0003168462278 5.08527738e-12 -0.02304982041)
(0.000308898691 5.085084589e-12 -0.02304940841)
(0.0002853621527 5.084513539e-12 -0.02304818827)
(0.0002471403532 5.083586763e-12 -0.02304620684)
(0.0001957026459 5.082339063e-12 -0.02304354029)
(0.0001330250576 5.080819012e-12 -0.02304029107)
(6.151687283e-05 5.079084289e-12 -0.02303658406)
(-1.607335938e-05 5.077202547e-12 -0.02303256176)
(-9.676484743e-05 5.075245779e-12 -0.02302837868)
(-0.0001774563355 5.073289011e-12 -0.02302419561)
(-0.0002550465677 5.071406402e-12 -0.02302017331)
(-0.0003265547524 5.069671679e-12 -0.0230164663)
(-0.0003892323407 5.068151628e-12 -0.02301321707)
(-0.000440670048 5.066903928e-12 -0.02301055053)
(-0.0004788918474 5.065976718e-12 -0.0230085691)
(-0.0005024283857 5.065405886e-12 -0.02300734895)
(-0.000528781755 6.08419655e-12 -0.0276062615)
(-0.0005208396657 6.084389177e-12 -0.02760667293)
(-0.0004973192601 6.084959793e-12 -0.0276078914)
(-0.0004591236591 6.085886569e-12 -0.02760987011)
(-0.0004077212088 6.087133402e-12 -0.02761253299)
(-0.0003450865817 6.088652586e-12 -0.02761577775)
(-0.0002736274109 6.090385574e-12 -0.02761947967)
(-0.0001960903615 6.092266448e-12 -0.02762349644)
(-0.000115454182 6.094222349e-12 -0.02762767377)
(-3.481800247e-05 6.09617825e-12 -0.02763185109)
(4.271904692e-05 6.098059124e-12 -0.02763586787)
(0.0001141782177 6.099792112e-12 -0.02763956978)
(0.0001768128447 6.101311296e-12 -0.02764281454)
(0.000228215295 6.102558129e-12 -0.02764547743)
(0.000266410896 6.103484471e-12 -0.02764745613)
(0.0002899313015 6.104055087e-12 -0.0276486746)
(0.0002978733908 6.104247686e-12 -0.02764908603)
(0.0002899313015 6.104055087e-12 -0.0276486746)
(0.0002664108959 6.103484471e-12 -0.02764745613)
(0.0002282152949 6.102558129e-12 -0.02764547743)
(0.0001768128446 6.101311296e-12 -0.02764281454)
(0.0001141782175 6.099792112e-12 -0.02763956978)
(4.271904675e-05 6.098059124e-12 -0.02763586787)
(-3.481800265e-05 6.09617825e-12 -0.02763185109)
(-0.0001154541822 6.094222349e-12 -0.02762767377)
(-0.0001960903617 6.092266448e-12 -0.02762349644)
(-0.0002736274111 6.090385574e-12 -0.02761947967)
(-0.0003450865819 6.088652586e-12 -0.02761577775)
(-0.0004077212089 6.087133402e-12 -0.02761253299)
(-0.0004591236592 6.085886569e-12 -0.02760987011)
(-0.0004973192602 6.084959793e-12 -0.0276078914)
(-0.0005208396657 6.084389177e-12 -0.02760667293)
(-0.0005467848328 7.105199381e-12 -0.0322021725)
(-0.0005388491059 7.105391796e-12 -0.03220258327)
(-0.0005153475428 7.105961869e-12 -0.03220379978)
(-0.0004771825407 7.106887561e-12 -0.03220577531)
(-0.0004258212694 7.108133526e-12 -0.03220843392)
(-0.0003632368195 7.109651843e-12 -0.03221167347)
(-0.0002918348954 7.111383531e-12 -0.03221536944)
(-0.0002143599618 7.113263104e-12 -0.03221937976)
(-0.0001337883807 7.11521727e-12 -0.03222355038)
(-5.321679964e-05 7.117171436e-12 -0.032227721)
(2.425813402e-05 7.119051008e-12 -0.03223173132)
(9.56600581e-05 7.120782696e-12 -0.03223542729)
(0.0001582445079 7.122301013e-12 -0.03223866684)
(0.0002096057792 7.123546978e-12 -0.03224132545)
(0.0002477707813 7.12447267e-12 -0.03224330098)
(0.0002712723444 7.125042526e-12 -0.03224451749)
(0.0002792080712 7.125235109e-12 -0.03224492826)
(0.0002712723443 7.125042526e-12 -0.03224451749)
(0.0002477707812 7.12447267e-12 -0.03224330098)
(0.0002096057791 7.123546978e-12 -0.03224132545)
(0.0001582445078 7.122301013e-12 -0.03223866684)
(9.566005795e-05 7.120782696e-12 -0.03223542729)
(2.425813385e-05 7.119051008e-12 -0.03223173132)
(-5.321679982e-05 7.117171436e-12 -0.032227721)
(-0.0001337883809 7.11521727e-12 -0.03222355038)
(-0.0002143599619 7.113263104e-12 -0.03221937976)
(-0.0002918348956 7.111383531e-12 -0.03221536944)
(-0.0003632368197 7.109651843e-12 -0.03221167347)
(-0.0004258212695 7.108133526e-12 -0.03220843392)
(-0.0004771825408 7.106887561e-12 -0.03220577531)
(-0.0005153475429 7.105961869e-12 -0.03220379978)
(-0.000538849106 7.105391796e-12 -0.03220258327)
(-0.000564333421 8.128364764e-12 -0.0367941505)
(-0.0005564049356 8.128557072e-12 -0.03679456052)
(-0.0005329248177 8.129126712e-12 -0.03679577481)
(-0.0004947946412 8.13005132e-12 -0.03679774672)
(-0.0004434802373 8.131295984e-12 -0.03680040047)
(-0.0003809528959 8.132812999e-12 -0.03680363409)
(-0.0003096161263 8.134543386e-12 -0.0368073233)
(-0.0002322118887 8.136421224e-12 -0.03681132629)
(-0.0001517138295 8.138373656e-12 -0.03681548928)
(-7.121577022e-05 8.140326087e-12 -0.03681965227)
(6.18846733e-06 8.142203925e-12 -0.03682365526)
(7.752523694e-05 8.143934312e-12 -0.03682734447)
(0.0001400525783 8.145451327e-12 -0.03683057809)
(0.0001913669822 8.146695991e-12 -0.03683323184)
(0.0002294971586 8.147621033e-12 -0.03683520375)
(0.0002529772765 8.148190673e-12 -0.03683641804)
(0.0002609057619 8.148382911e-12 -0.03683682806)
(0.0002529772764 8.148190673e-12 -0.03683641804)
(0.0002294971586 8.147621033e-12 -0.03683520375)
(0.0001913669821 8.146695991e-12 -0.03683323184)
(0.0001400525781 8.145451327e-12 -0.03683057809)
(7.752523679e-05 8.143934312e-12 -0.03682734447)
(6.188467159e-06 8.142203925e-12 -0.03682365526)
(-7.12157704e-05 8.140326087e-12 -0.03681965227)
(-0.0001517138297 8.138373656e-12 -0.03681548928)
(-0.0002322118889 8.136421224e-12 -0.03681132629)
(-0.0003096161265 8.134543386e-12 -0.0368073233)
(-0.0003809528961 8.132812999e-12 -0.03680363409)
(-0.0004434802374 8.131295984e-12 -0.03680040047)
(-0.0004947946413 8.13005132e-12 -0.03679774672)
(-0.0005329248178 8.129126712e-12 -0.03679577481)
(-0.0005564049356 8.128557072e-12 -0.03679456052)
(-0.0005813784514 9.153748344e-12 -0.04138169819)
(-0.0005734580457 9.153940518e-12 -0.04138210738)
(-0.0005500018559 9.154509399e-12 -0.04138331918)
(-0.0005119105372 9.15543379e-12 -0.04138528707)
(-0.0004606484267 9.156677153e-12 -0.04138793539)
(-0.0003981848057 9.158192434e-12 -0.04139116242)
(-0.000326920734 9.159921519e-12 -0.04139484409)
(-0.0002495953776 9.161797189e-12 -0.0413988389)
(-0.0001691793523 9.163747886e-12 -0.04140299339)
(-8.876332704e-05 9.165698582e-12 -0.04140714787)
(-1.143797062e-05 9.167574252e-12 -0.04141114269)
(5.982610109e-05 9.169303337e-12 -0.04141482436)
(0.000122289722 9.170818618e-12 -0.04141805138)
(0.0001735518325 9.172061981e-12 -0.0414206997)
(0.0002116431512 9.172985505e-12 -0.04142266759)
(0.0002350993409 9.173554819e-12 -0.0414238794)
(0.0002430197466 9.173746825e-12 -0.04142428858)
(0.0002350993409 9.173554819e-12 -0.0414238794)
(0.0002116431511 9.172985505e-12 -0.04142266759)
(0.0001735518324 9.172061981e-12 -0.0414206997)
(0.0001222897219 9.170818618e-12 -0.04141805138)
(5.982610094e-05 9.169303337e-12 -0.04141482436)
(-1.143797079e-05 9.167574252e-12 -0.04141114269)
(-8.876332722e-05 9.165698582e-12 -0.04140714787)
(-0.0001691793525 9.163747886e-12 -0.04140299339)
(-0.0002495953778 9.161797189e-12 -0.0413988389)
(-0.0003269207342 9.159921519e-12 -0.04139484409)
(-0.0003981848059 9.158192434e-12 -0.04139116242)
(-0.0004606484268 9.156677153e-12 -0.04138793539)
(-0.0005119105373 9.15543379e-12 -0.04138528707)
(-0.000550001856 9.154509399e-12 -0.04138331918)
(-0.0005734580457 9.153940518e-12 -0.04138210738)
(-0.0005978737545 1.018130712e-11 -0.04596434283)
(-0.0005899622225 1.018149898e-11 -0.0459647511)
(-0.0005665323122 1.018206743e-11 -0.04596596018)
(-0.0005284836696 1.01829903e-11 -0.04596792365)
(-0.0004772789914 1.018423236e-11 -0.04597056603)
(-0.0004148853524 1.018574591e-11 -0.0459737858)
(-0.0003437011224 1.018747283e-11 -0.04597745921)
(-0.0002664623985 1.018934676e-11 -0.04598144505)
(-0.0001861364684 1.019129572e-11 -0.04598559021)
(-0.0001058105384 1.019324469e-11 -0.04598973537)
(-2.857181451e-05 1.019511775e-11 -0.04599372121)
(4.26124155e-05 1.019684467e-11 -0.04599739462)
(0.0001050060545 1.019835822e-11 -0.04600061439)
(0.0001562107327 1.019960028e-11 -0.04600325677)
(0.0001942593752 1.020052359e-11 -0.04600522024)
(0.0002176892855 1.020109203e-11 -0.04600642932)
(0.0002256008174 1.020128395e-11 -0.04600683759)
(0.0002176892854 1.020109203e-11 -0.04600642932)
(0.0001942593752 1.020052359e-11 -0.04600522024)
(0.0001562107326 1.019960028e-11 -0.04600325677)
(0.0001050060543 1.019835822e-11 -0.04600061439)
(4.261241535e-05 1.019684467e-11 -0.04599739462)
(-2.857181468e-05 1.019511775e-11 -0.04599372121)
(-0.0001058105386 1.019324469e-11 -0.04598973537)
(-0.0001861364686 1.019129572e-11 -0.04598559021)
(-0.0002664623987 1.018934676e-11 -0.04598144505)
(-0.0003437011225 1.018747283e-11 -0.04597745921)
(-0.0004148853526 1.018574591e-11 -0.0459737858)
(-0.0004772789915 1.018423236e-11 -0.04597056603)
(-0.0005284836697 1.01829903e-11 -0.04596792365)
(-0.0005665323123 1.018206743e-11 -0.04596596018)
(-0.0005899622225 1.018149898e-11 -0.0459647511)
(-0.0006137762583 1.121088914e-11 -0.05054163835)
(-0.0006058743462 1.121108089e-11 -0.05054204562)
(-0.0005824729251 1.121164836e-11 -0.05054325176)
(-0.000544470547 1.121257037e-11 -0.05054521044)
(-0.0004933281302 1.121381113e-11 -0.05054784638)
(-0.0004310103576 1.121532294e-11 -0.05055105831)
(-0.0003599126827 1.121704812e-11 -0.05055472276)
(-0.0002827678759 1.121891902e-11 -0.0505586989)
(-0.0002025396166 1.122086538e-11 -0.05056283395)
(-0.0001223113574 1.122281174e-11 -0.05056696901)
(-4.516655057e-05 1.122468351e-11 -0.05057094514)
(2.593112429e-05 1.122640869e-11 -0.05057460959)
(8.824889685e-05 1.12279205e-11 -0.05057782152)
(0.0001393913137 1.122916126e-11 -0.05058045746)
(0.0001773936917 1.123008284e-11 -0.05058241614)
(0.0002007951128 1.123065074e-11 -0.05058362228)
(0.0002086970248 1.123084242e-11 -0.05058402955)
(0.0002007951127 1.123065074e-11 -0.05058362228)
(0.0001773936916 1.123008284e-11 -0.05058241614)
(0.0001393913136 1.122916126e-11 -0.05058045746)
(8.824889671e-05 1.12279205e-11 -0.05057782152)
(2.593112413e-05 1.122640869e-11 -0.05057460959)
(-4.516655074e-05 1.122468351e-11 -0.05057094514)
(-0.0001223113576 1.122281174e-11 -0.05056696901)
(-0.0002025396168 1.122086538e-11 -0.05056283395)
(-0.000282767876 1.121891902e-11 -0.0505586989)
(-0.0003599126829 1.121704812e-11 -0.05055472276)
(-0.0004310103578 1.121532294e-11 -0.05055105831)
(-0.0004933281303 1.121381113e-11 -0.05054784638)
(-0.0005444705471 1.121257037e-11 -0.05054521044)
(-0.0005824729252 1.121164836e-11 -0.05054325176)
(-0.0006058743462 1.121108089e-11 -0.05054204562)
(-0.0006290461541 1.224222421e-11 -0.0551131672)
(-0.0006211545573 1.224241574e-11 -0.05511357341)
(-0.0005977836847 1.224298267e-11 -0.05511477639)
(-0.0005598309155 1.224390381e-11 -0.05511672995)
(-0.0005087552606 1.224514283e-11 -0.05511935899)
(-0.0004465188385 1.224665291e-11 -0.05512256252)
(-0.0003755139755 1.224837549e-11 -0.05512621739)
(-0.0002984698744 1.225024422e-11 -0.05513018312)
(-0.0002183463463 1.225218798e-11 -0.05513430736)
(-0.0001382228181 1.225413174e-11 -0.05513843159)
(-6.117871707e-05 1.225600134e-11 -0.05514239732)
(9.826145943e-06 1.225772392e-11 -0.05514605219)
(7.206256805e-05 1.225923399e-11 -0.05514925572)
(0.0001231382229 1.226047302e-11 -0.05515188476)
(0.0001610909921 1.226139372e-11 -0.05515383832)
(0.0001844618647 1.226196087e-11 -0.0551550413)
(0.0001923534614 1.22621522e-11 -0.05515544751)
(0.0001844618646 1.226196087e-11 -0.0551550413)
(0.000161090992 1.226139372e-11 -0.05515383832)
(0.0001231382228 1.226047302e-11 -0.05515188476)
(7.206256792e-05 1.225923399e-11 -0.05514925572)
(9.826145788e-06 1.225772392e-11 -0.05514605219)
(-6.117871724e-05 1.225600134e-11 -0.05514239732)
(-0.0001382228183 1.225413174e-11 -0.05513843159)
(-0.0002183463464 1.225218798e-11 -0.05513430736)
(-0.0002984698746 1.225024422e-11 -0.05513018312)
(-0.0003755139756 1.224837549e-11 -0.05512621739)
(-0.0004465188386 1.224665291e-11 -0.05512256252)
(-0.0005087552607 1.224514283e-11 -0.05511935899)
(-0.0005598309156 1.224390381e-11 -0.05511672995)
(-0.0005977836848 1.224298267e-11 -0.05511477639)
(-0.0006211545573 1.224241574e-11 -0.05511357341)
(-0.0006436470228 1.327491592e-11 -0.05967854191)
(-0.0006357663835 1.327510714e-11 -0.05967894699)
(-0.0006124279614 1.327567331e-11 -0.05968014662)
(-0.0005745278897 1.327659293e-11 -0.05968209475)
(-0.0005235231536 1.327783066e-11 -0.05968471648)
(-0.0004613731469 1.327933857e-11 -0.05968791109)
(-0.0003904668744 1.328105898e-11 -0.05969155579)
(-0.0003135297493 1.328292511e-11 -0.05969551048)
(-0.0002335174729 1.328486626e-11 -0.05969962324)
(-0.0001535051965 1.328680742e-11 -0.05970373601)
(-7.656807147e-05 1.328867441e-11 -0.0597076907)
(-5.661798937e-06 1.329039483e-11 -0.0597113354)
(5.64882077e-05 1.329190273e-11 -0.05971453001)
(0.0001074929438 1.329314046e-11 -0.05971715174)
(0.0001453930155 1.329405965e-11 -0.05971909987)
(0.0001687314375 1.329462582e-11 -0.0597202995)
(0.0001766120768 1.329481698e-11 -0.05972070458)
(0.0001687314375 1.329462582e-11 -0.0597202995)
(0.0001453930154 1.329405965e-11 -0.05971909987)
(0.0001074929437 1.329314046e-11 -0.05971715174)
(5.648820757e-05 1.329190273e-11 -0.05971453001)
(-5.661799093e-06 1.329039483e-11 -0.0597113354)
(-7.656807164e-05 1.328867441e-11 -0.0597076907)
(-0.0001535051967 1.328680742e-11 -0.05970373601)
(-0.0002335174731 1.328486626e-11 -0.05969962324)
(-0.0003135297495 1.328292511e-11 -0.05969551048)
(-0.0003904668745 1.328105898e-11 -0.05969155579)
(-0.0004613731471 1.327933857e-11 -0.05968791109)
(-0.0005235231537 1.327783066e-11 -0.05968471648)
(-0.0005745278898 1.327659293e-11 -0.05968209475)
(-0.0006124279615 1.327567331e-11 -0.05968014662)
(-0.0006357663835 1.327510714e-11 -0.05967894699)
(-0.0006575459309 1.430843511e-11 -0.06423740629)
(-0.0006496768363 1.430862612e-11 -0.06423781018)
(-0.0006263726039 1.430919164e-11 -0.06423900629)
(-0.0005885280538 1.431010995e-11 -0.0642409487)
(-0.0005375980369 1.431134551e-11 -0.06424356273)
(-0.0004755390768 1.431285125e-11 -0.06424674797)
(-0.0004047366783 1.431456906e-11 -0.06425038197)
(-0.0003279122621 1.431643259e-11 -0.06425432505)
(-0.0002480171995 1.431837114e-11 -0.06425842574)
(-0.000168122137 1.43203097e-11 -0.06426252643)
(-9.129772081e-05 1.432217409e-11 -0.06426646952)
(-2.049532228e-05 1.43238919e-11 -0.06427010352)
(4.156363783e-05 1.432539764e-11 -0.06427328875)
(9.249365466e-05 1.43266332e-11 -0.06427590278)
(0.0001303382047 1.432755151e-11 -0.06427784519)
(0.0001536424371 1.432811682e-11 -0.0642790413)
(0.0001615115317 1.432830777e-11 -0.06427944519)
(0.0001536424371 1.432811682e-11 -0.0642790413)
(0.0001303382046 1.432755151e-11 -0.06427784519)
(9.249365456e-05 1.43266332e-11 -0.06427590278)
(4.15636377e-05 1.432539764e-11 -0.06427328875)
(-2.049532244e-05 1.43238919e-11 -0.06427010352)
(-9.129772098e-05 1.432217409e-11 -0.06426646952)
(-0.0001681221371 1.43203097e-11 -0.06426252643)
(-0.0002480171997 1.431837114e-11 -0.06425842574)
(-0.0003279122623 1.431643259e-11 -0.06425432505)
(-0.0004047366784 1.431456906e-11 -0.06425038197)
(-0.000475539077 1.431285125e-11 -0.06424674797)
(-0.0005375980371 1.431134551e-11 -0.06424356273)
(-0.0005885280539 1.431010995e-11 -0.0642409487)
(-0.0006263726039 1.430919164e-11 -0.06423900629)
(-0.0006496768364 1.430862612e-11 -0.06423781018)
(-0.0006707134864 1.534211521e-11 -0.06878943639)
(-0.0006628564674 1.534230588e-11 -0.06878983904)
(-0.0006395879967 1.534287042e-11 -0.06879103147)
(-0.0006018015215 1.5343787e-11 -0.06879296791)
(-0.0005509496599 1.534502083e-11 -0.0687955739)
(-0.0004889859331 1.53465244e-11 -0.06879874934)
(-0.0004182921852 1.534823961e-11 -0.06880237217)
(-0.0003415856609 1.535010053e-11 -0.06880630313)
(-0.0002618132022 1.535203648e-11 -0.06881039121)
(-0.0001820407436 1.535397243e-11 -0.06881447929)
(-0.0001053342193 1.535583336e-11 -0.06881841025)
(-3.464047142e-05 1.535754857e-11 -0.06882203308)
(2.732325537e-05 1.535905214e-11 -0.06882520852)
(7.817511693e-05 1.536028596e-11 -0.06882781451)
(0.0001159615922 1.536120298e-11 -0.06882975095)
(0.0001392300628 1.536176752e-11 -0.06883094338)
(0.0001470870818 1.536195814e-11 -0.06883134603)
(0.0001392300628 1.536176752e-11 -0.06883094338)
(0.0001159615921 1.536120298e-11 -0.06882975095)
(7.817511683e-05 1.536028596e-11 -0.06882781451)
(2.732325524e-05 1.535905214e-11 -0.06882520852)
(-3.464047157e-05 1.535754857e-11 -0.06882203308)
(-0.0001053342194 1.535583336e-11 -0.06881841025)
(-0.0001820407438 1.535397243e-11 -0.06881447929)
(-0.0002618132024 1.535203648e-11 -0.06881039121)
(-0.0003415856611 1.535010053e-11 -0.06880630313)
(-0.0004182921854 1.534823961e-11 -0.06880237217)
(-0.0004889859332 1.53465244e-11 -0.06879874934)
(-0.00055094966 1.534502083e-11 -0.0687955739)
(-0.0006018015216 1.5343787e-11 -0.06879296791)
(-0.0006395879968 1.534287042e-11 -0.06879103147)
(-0.0006628564674 1.534230588e-11 -0.06878983904)
(-0.0006831238644 1.637514971e-11 -0.0733343411)
(-0.0006752793948 1.63753401e-11 -0.07333474246)
(-0.0006520480888 1.637590367e-11 -0.07333593108)
(-0.0006143219666 1.637681917e-11 -0.07333786132)
(-0.0005635513263 1.637805083e-11 -0.07334045897)
(-0.0005016865688 1.637955223e-11 -0.07334362425)
(-0.000431105734 1.638126483e-11 -0.07334723548)
(-0.0003545217263 1.638312316e-11 -0.07335115386)
(-0.0002748766814 1.638505564e-11 -0.07335522886)
(-0.0001952316364 1.638698812e-11 -0.07335930386)
(-0.0001186476288 1.638884644e-11 -0.07336322224)
(-4.806679396e-05 1.639055905e-11 -0.07336683347)
(1.379796352e-05 1.639206045e-11 -0.07336999875)
(6.456860379e-05 1.639329211e-11 -0.0733725964)
(0.0001022947259 1.639420761e-11 -0.07337452664)
(0.0001255260319 1.639477139e-11 -0.07337571526)
(0.0001333705015 1.639496173e-11 -0.07337611662)
(0.0001255260318 1.639477139e-11 -0.07337571526)
(0.0001022947259 1.639420761e-11 -0.07337452664)
(6.456860368e-05 1.639329211e-11 -0.0733725964)
(1.379796338e-05 1.639206045e-11 -0.07336999875)
(-4.806679411e-05 1.639055905e-11 -0.07336683347)
(-0.000118647629 1.638884644e-11 -0.07336322224)
(-0.0001952316366 1.638698812e-11 -0.07335930386)
(-0.0002748766816 1.638505564e-11 -0.07335522886)
(-0.0003545217265 1.638312316e-11 -0.07335115386)
(-0.0004311057341 1.638126483e-11 -0.07334723548)
(-0.000501686569 1.637955223e-11 -0.07334362425)
(-0.0005635513264 1.637805083e-11 -0.07334045897)
(-0.0006143219667 1.637681917e-11 -0.07333786132)
(-0.0006520480889 1.637590367e-11 -0.07333593108)
(-0.0006752793948 1.63753401e-11 -0.07333474246)
(-0.0006947547964 1.740659189e-11 -0.07787186249)
(-0.0006869232924 1.740678196e-11 -0.07787226252)
(-0.000663730384 1.740734466e-11 -0.0778734472)
(-0.0006260666169 1.740825843e-11 -0.07787537105)
(-0.0005753798922 1.740948835e-11 -0.0778779601)
(-0.000513617387 1.741098715e-11 -0.0778811149)
(-0.0004431532108 1.741269715e-11 -0.07788471417)
(-0.000366695784 1.741455157e-11 -0.07788861957)
(-0.0002871823793 1.741648145e-11 -0.07789268108)
(-0.0002076689745 1.741841133e-11 -0.07789674258)
(-0.0001312115478 1.742026662e-11 -0.07790064799)
(-6.074737151e-05 1.742197662e-11 -0.07790424726)
(1.015133629e-06 1.742347542e-11 -0.07790740206)
(5.170185834e-05 1.742470534e-11 -0.07790999111)
(8.936562538e-05 1.742561911e-11 -0.07791191495)
(0.0001125585338 1.742618203e-11 -0.07791309963)
(0.0001203900377 1.742637202e-11 -0.07791349966)
(0.0001125585337 1.742618203e-11 -0.07791309963)
(8.936562531e-05 1.742561911e-11 -0.07791191495)
(5.170185823e-05 1.742470534e-11 -0.07790999111)
(1.015133497e-06 1.742347542e-11 -0.07790740206)
(-6.074737167e-05 1.742197662e-11 -0.07790424726)
(-0.0001312115479 1.742026662e-11 -0.07790064799)
(-0.0002076689747 1.741841133e-11 -0.07789674258)
(-0.0002871823794 1.741648145e-11 -0.07789268108)
(-0.0003666957842 1.741455157e-11 -0.07788861957)
(-0.0004431532109 1.741269715e-11 -0.07788471417)
(-0.0005136173872 1.741098715e-11 -0.0778811149)
(-0.0005753798923 1.740948835e-11 -0.0778779601)
(-0.000626066617 1.740825843e-11 -0.07787537105)
(-0.0006637303841 1.740734466e-11 -0.0778734472)
(-0.0006869232925 1.740678196e-11 -0.07787226252)
(-0.0007055875292 1.843535718e-11 -0.08240177582)
(-0.0006977693499 1.843554693e-11 -0.08240217448)
(-0.0006746159024 1.843610898e-11 -0.08240335513)
(-0.0006370162173 1.843702144e-11 -0.08240527241)
(-0.000586415732 1.843824919e-11 -0.08240785264)
(-0.0005247583109 1.843974539e-11 -0.08241099668)
(-0.0004544140239 1.844145236e-11 -0.08241458368)
(-0.0003780866835 1.844330418e-11 -0.08241847578)
(-0.0002987085646 1.844523059e-11 -0.08242252344)
(-0.0002193304457 1.8447157e-11 -0.08242657109)
(-0.0001430031053 1.844900968e-11 -0.08243046319)