/*--------------------------------*- C++ -*----------------------------------*\
| =========                 |                                                 |
| \\      /  F ield         | OpenFOAM: The Open Source CFD Toolbox           |
|  \\    /   O peration     | Version:  2312                                  |
|   \\  /    A nd           | Website:  www.openfoam.com                      |
|    \\/     M anipulation  |                                                 |
\*---------------------------------------------------------------------------*/
FoamFile
{
    version     2.0;
    format      ascii;
    arch        "LSB;label=32;scalar=64";
    class       surfaceVectorField;
    location    "0.24/beam";
    object      Q;
}
// * * * * * * * * * * * * * * * * * * * * * * * * * * * * * * * * * * * * * //

dimensions      [1 1 -2 0 0 0 0];

oriented        oriented;

internalField   nonuniform List<vector> 
59
(
(0.7441075787 1.703578569e-11 -0.07748053429)
(0.7441091422 1.70462654e-11 -0.07746563285)
(0.7441117375 1.70633694e-11 -0.07744089561)
(0.744115349 1.708655541e-11 -0.07740646903)
(0.7441199552 1.711506634e-11 -0.07736255561)
(0.7441255287 1.7147933e-11 -0.07730941141)
(0.744132037 1.718397818e-11 -0.07724734298)
(0.7441394425 1.722182265e-11 -0.07717670371)
(0.7441477031 1.725989359e-11 -0.07709788973)
(0.7441567727 1.729643604e-11 -0.07701133539)
(0.7441666018 1.73295278e-11 -0.07691750853)
(0.7441771378 1.735709836e-11 -0.0768169054)
(0.7441883259 1.737695221e-11 -0.07671004559)
(0.7442001093 1.738679686e-11 -0.07659746681)
(0.74421243 1.738427569e-11 -0.07647971971)
(0.7442252293 1.736700565e-11 -0.07635736275)
(0.7442384483 1.733261939e-11 -0.07623095719)
(0.7442520285 1.72788117e-11 -0.07610106205)
(0.7442659123 1.720338913e-11 -0.0759682292)
(0.7442800433 1.710432233e-11 -0.07583299844)
(0.7442943672 1.697979961e-11 -0.07569589252)
(0.7443088321 1.682828055e-11 -0.07555741197)
(0.7443233874 1.664857002e-11 -0.07541804556)
(0.7443379926 1.643975773e-11 -0.07527818572)
(0.7443526 1.620150986e-11 -0.07513829633)
(0.7443671796 1.593374465e-11 -0.07499866955)
(0.744381694 1.563709193e-11 -0.07485967207)
(0.7443961246 1.531242852e-11 -0.0747214866)
(0.7444104467 1.496142099e-11 -0.07458435689)
(0.7444246555 1.458593371e-11 -0.07444833296)
(0.7444387412 1.418864166e-11 -0.07431351501)
(0.7444527141 1.377231705e-11 -0.07417980616)
(0.7444665797 1.334049336e-11 -0.07404715765)
(0.7444803631 1.289664527e-11 -0.07391533293)
(0.7444940826 1.244488103e-11 -0.0737841584)
(0.7445077735 1.198903926e-11 -0.07365330226)
(0.7445214606 1.153338495e-11 -0.07352253577)
(0.7445351799 1.108165526e-11 -0.0733915282)
(0.7445489501 1.063773776e-11 -0.07326012191)
(0.7445627934 1.020470552e-11 -0.0731281404)
(0.744576705 9.785466154e-12 -0.07299567475)
(0.7445906741 9.381834846e-12 -0.07286289481)
(0.7446046538 8.995160192e-12 -0.07273033415)
(0.744618583 8.625489913e-12 -0.07259868584)
(0.7446323594 8.272200436e-12 -0.07246905993)
(0.7446458651 7.933306677e-12 -0.07234273937)
(0.7446589452 7.606134419e-12 -0.07222137501)
(0.74467144 7.286797548e-12 -0.07210668254)
(0.7446831714 6.970933099e-12 -0.07200054772)
(0.7446939799 6.653296888e-12 -0.07190467449)
(0.7447037185 6.328509684e-12 -0.07182061198)
(0.7447122877 5.990603253e-12 -0.07174942271)
(0.7447196292 5.63362289e-12 -0.07169171096)
(0.7447257462 5.250863588e-12 -0.07164744269)
(0.744730686 4.835180306e-12 -0.07161609861)
(0.7447345358 4.377812832e-12 -0.07159675215)
(0.7447373913 3.868673283e-12 -0.07158836684)
(0.7447393407 3.295350987e-12 -0.07159001246)
(0.744740443 2.644586323e-12 -0.07160104844)
)
;

boundaryField
{
    left
    {
        type            calculated;
        value           uniform (-0.7441070565 -2.384404616e-11 0.07748551132);
    }
    right
    {
        type            calculated;
        value           uniform (0.7447407293 -4.90788667e-12 -0.0716211508);
    }
    beam
    {
        type            empty;
        value           nonuniform List<vector> 0();
    }
}


// ************************************************************************* //
