/*--------------------------------*- C++ -*----------------------------------*\
| =========                 |                                                 |
| \\      /  F ield         | OpenFOAM: The Open Source CFD Toolbox           |
|  \\    /   O peration     | Version:  2312                                  |
|   \\  /    A nd           | Website:  www.openfoam.com                      |
|    \\/     M anipulation  |                                                 |
\*---------------------------------------------------------------------------*/
FoamFile
{
    version     2.0;
    format      ascii;
    arch        "LSB;label=32;scalar=64";
    class       volVectorField;
    location    "0.24/beam";
    object      Theta;
}
// * * * * * * * * * * * * * * * * * * * * * * * * * * * * * * * * * * * * * //

dimensions      [0 0 0 0 0 0 0];

internalField   nonuniform List<vector> 
60
(
(-2.829614009e-13 0.1037099671 2.256350697e-11)
(-2.794105195e-13 0.1036989122 2.257408769e-11)
(-2.723212525e-13 0.10367322 2.259417055e-11)
(-2.61720969e-13 0.1036352395 2.262314571e-11)
(-2.4765245e-13 0.1035838934 2.266010265e-11)
(-2.301758614e-13 0.1035202742 2.270383384e-11)
(-2.093713649e-13 0.1034442895 2.275284081e-11)
(-1.853424452e-13 0.1033566632 2.280533969e-11)
(-1.582190934e-13 0.1032577299 2.285927523e-11)
(-1.281618897e-13 0.1031481475 2.291233289e-11)
(-9.536586062e-14 0.103028461 2.296195805e-11)
(-6.006370297e-14 0.1028993532 2.30053827e-11)
(-2.252913687e-14 0.1027614843 2.303965373e-11)
(1.692075237e-14 0.1026155766 2.306166892e-11)
(5.79243657e-14 0.1024623527 2.306822072e-11)
(1.000757153e-13 0.1023025616 2.305604489e-11)
(1.429264888e-13 0.1021369518 2.302188352e-11)
(1.859880559e-13 0.1019662768 2.29625244e-11)
(2.287389883e-13 0.101791281 2.28749017e-11)
(2.706300228e-13 0.1016126976 2.275613897e-11)
(3.110936299e-13 0.1014312391 2.260363543e-11)
(3.495540312e-13 0.101247592 2.241513957e-11)
(3.854362823e-13 0.1010624199 2.218883297e-11)
(4.1818602e-13 0.1008763139 2.192335412e-11)
(4.472710967e-13 0.1006898477 2.161793324e-11)
(4.721992951e-13 0.100503528 2.127240933e-11)
(4.925315134e-13 0.1003177962 2.088727711e-11)
(5.078886761e-13 0.1001330199 2.046374408e-11)
(5.179642221e-13 0.09994948468 2.000370417e-11)
(5.225279413e-13 0.09976738654 1.950980199e-11)
(5.214408354e-13 0.09958682619 1.898538706e-11)
(5.146326352e-13 0.0994078055 1.843439699e-11)
(5.02136129e-13 0.09923022771 1.786142165e-11)
(4.84060683e-13 0.0990539026 1.727156364e-11)
(4.605959764e-13 0.0988785578 1.667026804e-11)
(4.320015909e-13 0.09870385793 1.606325976e-11)
(3.986019067e-13 0.09852943228 1.545633813e-11)
(3.607714009e-13 0.09835491224 1.48552159e-11)
(3.1892689e-13 0.09817997817 1.426530745e-11)
(2.735109882e-13 0.09800441535 1.369153102e-11)
(2.249819598e-13 0.097828176 1.313809152e-11)
(1.737950662e-13 0.09765144503 1.260828227e-11)
(1.203881426e-13 0.09747470208 1.21043042e-11)
(6.515688312e-14 0.09729877615 1.162711062e-11)
(8.430541762e-15 0.09712487755 1.117631893e-11)
(-4.956577714e-14 0.0969546083 1.075015433e-11)
(-1.087503797e-13 0.09678992351 1.034549254e-11)
(-1.692325275e-13 0.09663306588 9.957969976e-12)
(-2.31344511e-13 0.09648641989 9.582187893e-12)
(-2.956411569e-13 0.09635237296 9.21201054e-12)
(-3.628021355e-13 0.09623305671 8.840970456e-12)
(-4.333758778e-13 0.09613022765 8.462827076e-12)
(-5.072487503e-13 0.09604493062 8.072260399e-12)
(-5.827948854e-13 0.09597764525 7.665830728e-12)
(-6.557758452e-13 0.09592785768 7.243162732e-12)
(-7.185072935e-13 0.09589491465 6.80820787e-12)
(-7.606326484e-13 0.0958770765 6.369049958e-12)
(-7.751704591e-13 0.09587379915 5.924384618e-12)
(-7.968953399e-13 0.0958823552 5.336773305e-12)
(-1.431840621e-12 0.09590117353 3.333425179e-12)
)
;

boundaryField
{
    left
    {
        type            momentBeamRotationNR;
        value           uniform (-2.829614009e-13 0.1037099671 2.256350697e-11);
        momentSeries    
{
        file            "$FOAM_CASE/constant/beam/timeVsMoment";
        outOfBounds     clamp;
}
        moment          uniform (0 0 0);
    }
    right
    {
        type            momentBeamRotationNR;
        value           uniform (-1.431840621e-12 0.09590117353 3.333425179e-12);
        momentSeries    
{
        file            "$FOAM_CASE/constant/beam/timeVsMoment";
        outOfBounds     clamp;
}
        moment          uniform (0 0 0);
    }
    beam
    {
        type            empty;
    }
}


// ************************************************************************* //
