/*--------------------------------*- C++ -*----------------------------------*\
| =========                 |                                                 |
| \\      /  F ield         | OpenFOAM: The Open Source CFD Toolbox           |
|  \\    /   O peration     | Version:  2312                                  |
|   \\  /    A nd           | Website:  www.openfoam.com                      |
|    \\/     M anipulation  |                                                 |
\*---------------------------------------------------------------------------*/
FoamFile
{
    version     2.0;
    format      ascii;
    arch        "LSB;label=32;scalar=64";
    class       volVectorField;
    location    "0.24/beam";
    object      W;
}
// * * * * * * * * * * * * * * * * * * * * * * * * * * * * * * * * * * * * * //

dimensions      [0 1 0 0 0 0 0];

internalField   nonuniform List<vector> 
60
(
(-9.806171432e-06 5.075771409e-13 -0.002304083886)
(-2.938776197e-05 1.52093871e-12 -0.006911956344)
(-4.887729345e-05 2.534915651e-12 -0.01151894461)
(-6.821404173e-05 3.549896686e-12 -0.01612446507)
(-8.73382415e-05 4.566238331e-12 -0.02072794274)
(-0.0001061914532 5.584252132e-12 -0.02532881463)
(-0.000124716911 6.604192103e-12 -0.0299265329)
(-0.0001428598506 7.626242387e-12 -0.03452056786)
(-0.0001605678086 8.650505288e-12 -0.0391104107)
(-0.0001777908962 9.676989881e-12 -0.04369557607)
(-0.0001944820408 1.070560119e-11 -0.04827560434)
(-0.0002105971927 1.173613037e-11 -0.05285006356)
(-0.0002260955 1.276824603e-11 -0.05741855115)
(-0.000240939446 1.380148686e-11 -0.06198069533)
(-0.0002550949533 1.483525601e-11 -0.06653615615)
(-0.0002685314514 1.586881734e-11 -0.07108462627)
(-0.0002812219116 1.69012941e-11 -0.07562583145)
(-0.0002931428471 1.79316698e-11 -0.0801595307)
(-0.0003042742822 1.895879198e-11 -0.08468551617)
(-0.0003145996878 1.998137909e-11 -0.08920361267)
(-0.0003241058883 2.099803013e-11 -0.09371367704)
(-0.0003327829361 2.200723768e-11 -0.09821559705)
(-0.0003406235117 2.300734751e-11 -0.1027090364)
(-0.0003476246024 2.399680481e-11 -0.1071944489)
(-0.0003537842441 2.497383239e-11 -0.1116715504)
(-0.0003591037028 2.593669051e-11 -0.1161403379)
(-0.0003635859819 2.688363531e-11 -0.1206008256)
(-0.0003672362551 2.781296086e-11 -0.1250530494)
(-0.0003700607527 2.87230135e-11 -0.129497056)
(-0.0003720671193 2.961223822e-11 -0.1339329062)
(-0.0003732632543 3.04791915e-11 -0.138360664)
(-0.0003736576139 3.13225873e-11 -0.1427803992)
(-0.0003732580454 3.214130239e-11 -0.1471921759)
(-0.0003720720874 3.293442304e-11 -0.1515960554)
(-0.0003701058739 3.370124001e-11 -0.1559920852)
(-0.0003673645314 3.444128566e-11 -0.160380303)
(-0.0003638512696 3.515431788e-11 -0.1647607272)
(-0.0003595680187 3.584034496e-11 -0.1691333634)
(-0.0003545148559 3.649959406e-11 -0.1734981985)
(-0.0003486910463 3.713251985e-11 -0.1778552109)
(-0.0003420949461 3.773975621e-11 -0.1822043699)
(-0.0003347255712 3.832210635e-11 -0.1865456512)
(-0.0003265830405 3.888047838e-11 -0.1908790417)
(-0.0003176706557 3.941585804e-11 -0.1952045609)
(-0.0003079957622 3.99292323e-11 -0.1995222697)
(-0.0002975720746 4.042155057e-11 -0.2038322951)
(-0.0002864205572 4.089364496e-11 -0.2081348392)
(-0.0002745714116 4.134619075e-11 -0.2124302004)
(-0.0002620643079 4.177963542e-11 -0.2167187766)
(-0.0002489492372 4.21941712e-11 -0.2210010742)
(-0.0002352853852 4.258968222e-11 -0.225277697)
(-0.0002211402265 4.296573566e-11 -0.2295493375)
(-0.0002065868173 4.332154389e-11 -0.2338167482)
(-0.0001917013471 4.365596151e-11 -0.2380807166)
(-0.0001765597433 4.396743621e-11 -0.2423420293)
(-0.0001612351813 4.425398034e-11 -0.2466014459)
(-0.0001457959612 4.45130785e-11 -0.2508596761)
(-0.0001303048447 4.474164846e-11 -0.2551173728)
(-0.0001148187055 4.493620999e-11 -0.2593751276)
(-9.938343049e-05 4.509502179e-11 -0.2636334181)
)
;

boundaryField
{
    left
    {
        type            fixedValue;
        value           uniform (0 0 0);
    }
    right
    {
        type            fixedValue;
        value           uniform (-9.168239289e-05 4.516446875e-11 -0.2657629889);
    }
    beam
    {
        type            empty;
    }
}


// ************************************************************************* //
