/*--------------------------------*- C++ -*----------------------------------*\
| =========                 |                                                 |
| \\      /  F ield         | OpenFOAM: The Open Source CFD Toolbox           |
|  \\    /   O peration     | Version:  2312                                  |
|   \\  /    A nd           | Website:  www.openfoam.com                      |
|    \\/     M anipulation  |                                                 |
\*---------------------------------------------------------------------------*/
FoamFile
{
    version     2.0;
    format      ascii;
    arch        "LSB;label=32;scalar=64";
    class       volScalarField;
    location    "0.2";
    object      p;
}
// * * * * * * * * * * * * * * * * * * * * * * * * * * * * * * * * * * * * * //

dimensions      [1 -1 -2 0 0 0 0];

internalField   nonuniform List<scalar> 
299556
(
19.37475501
19.37476507
19.37477521
19.37478548
19.37479592
19.3748066
19.37481757
19.37482887
19.37484056
19.3748527
19.37486534
19.37487854
19.37489235
19.37490684
19.37492205
19.37493805
19.37495489
19.37497264
19.37499134
19.37501107
19.37503186
19.37505378
19.37507688
19.3751012
19.37512679
19.37515369
19.37518193
19.37521153
19.37524252
19.37527489
19.37530866
19.37534379
19.37538027
19.37541805
19.37545706
19.37549723
19.37553845
19.3755806
19.37562355
19.37566712
19.37571113
19.37575537
19.37579959
19.37584355
19.37588697
19.37592956
19.37597099
19.37601096
19.37604913
19.37608517
19.37611873
19.37614948
19.37617712
19.37620133
19.37622184
19.37623839
19.37625076
19.37625876
19.37626226
19.37626113
19.37625532
19.37624483
19.37622967
19.37620993
19.37618571
19.37615717
19.3761245
19.37608791
19.37604763
19.37600394
19.37595709
19.37590738
19.37585507
19.37580045
19.37574379
19.37568535
19.37562537
19.3755641
19.37550173
19.37543846
19.37537445
19.37530986
19.3752448
19.37517939
19.37511372
19.37504784
19.37498181
19.37491568
19.37484946
19.37478317
19.37476496
19.37479503
19.37482532
19.374856
19.37488722
19.37491912
19.37495188
19.37498565
19.37502059
19.37505686
19.37509464
19.37513407
19.37517535
19.37521863
19.37526408
19.37531189
19.37536222
19.37541525
19.37547115
19.37553009
19.37559223
19.37565774
19.37572677
19.37579945
19.37587593
19.37595632
19.37604071
19.37612919
19.3762218
19.37631858
19.3764195
19.37652453
19.37663358
19.37674651
19.37686313
19.37698322
19.37710646
19.3772325
19.37736092
19.37749121
19.37762281
19.3777551
19.37788737
19.37801885
19.37814873
19.37827611
19.37840007
19.37851964
19.37863384
19.37874165
19.37884207
19.37893411
19.37901682
19.37908928
19.37915066
19.3792002
19.37923723
19.3792612
19.37927167
19.37926831
19.37925096
19.37921957
19.37917423
19.37911517
19.37904273
19.37895736
19.37885962
19.37875015
19.37862968
19.37849898
19.37835886
19.37821015
19.37805369
19.37789033
19.37772088
19.37754612
19.37736678
19.37718355
19.37699706
19.37680788
19.37661652
19.37642341
19.37622892
19.37603338
19.37583705
19.37564012
19.37544276
19.37524509
19.37504719
19.37484911
19.37477482
19.37482471
19.37487498
19.37492588
19.37497767
19.37503061
19.37508497
19.375141
19.37519897
19.37525916
19.37532183
19.37538727
19.37545576
19.37552757
19.375603
19.37568233
19.37576585
19.37585384
19.3759466
19.37604441
19.37614753
19.37625624
19.37637079
19.37649142
19.37661835
19.37675176
19.37689182
19.37703867
19.37719239
19.37735302
19.37752054
19.37769488
19.3778759
19.37806337
19.37825699
19.37845636
19.37866098
19.37887026
19.3790835
19.37929986
19.37951841
19.37973811
19.3799578
19.38017619
19.38039193
19.38060354
19.38080948
19.38100814
19.38119788
19.38137702
19.38154389
19.38169685
19.38183431
19.38195475
19.38205678
19.38213914
19.38220071
19.38224057
19.38225801
19.38225247
19.38222366
19.38217153
19.38209623
19.38199811
19.38187776
19.38173593
19.38157356
19.38139171
19.38119158
19.38097445
19.38074169
19.38049467
19.38023481
19.37996349
19.37968206
19.37939182
19.379094
19.37878974
19.37848008
19.37816598
19.37784825
19.37752764
19.37720477
19.37688015
19.37655423
19.37622733
19.37589973
19.37557163
19.37524317
19.37491446
19.37478453
19.37485393
19.37492386
19.37499467
19.37506672
19.37514037
19.37521599
19.37529394
19.3753746
19.37545833
19.37554553
19.37563657
19.37573185
19.37583176
19.3759367
19.37604707
19.37616327
19.37628571
19.37641477
19.37655086
19.37669435
19.37684561
19.37700501
19.37717287
19.3773495
19.37753516
19.37773009
19.37793446
19.3781484
19.37837198
19.37860516
19.37884784
19.37909984
19.37936083
19.37963039
19.37990798
19.38019291
19.38048434
19.3807813
19.38108263
19.38138705
19.38169309
19.38199913
19.38230341
19.382604
19.38289886
19.38318586
19.38346273
19.3837272
19.38397691
19.38420955
19.3844228
19.38461447
19.38478243
19.38492473
19.38503961
19.38512551
19.38518116
19.38520554
19.38519787
19.38515778
19.38508517
19.38498025
19.38484353
19.38467582
19.38447818
19.3842519
19.38399849
19.38371961
19.38341707
19.38309275
19.38274859
19.38238656
19.38200858
19.38161656
19.38121229
19.38079749
19.38037375
19.37994253
19.37950514
19.37906274
19.37861635
19.37816683
19.37771491
19.3772612
19.37680615
19.37635015
19.37589348
19.37543633
19.37497886
19.37479403
19.37488251
19.37497167
19.37506196
19.37515382
19.37524773
19.37534415
19.37544354
19.37554638
19.37565315
19.37576434
19.37588043
19.37600192
19.37612932
19.37626314
19.37640389
19.37655207
19.3767082
19.3768728
19.37704635
19.37722935
19.37742228
19.37762558
19.37783968
19.37806497
19.3783018
19.37855046
19.37881118
19.37908413
19.37936938
19.37966691
19.37997658
19.38029815
19.38063123
19.38097528
19.3813296
19.38169332
19.38206538
19.38244452
19.3828293
19.38321805
19.38360891
19.38399982
19.38438851
19.38477253
19.38514929
19.38551603
19.38586988
19.38620791
19.38652712
19.38682453
19.38709721
19.3873423
19.38755711
19.38773913
19.3878861
19.38799605
19.3880673
19.38809858
19.38808889
19.38803774
19.38794502
19.38781099
19.38763631
19.38742201
19.38716946
19.38688032
19.38655651
19.38620019
19.38581364
19.3853993
19.38495965
19.38449719
19.38401442
19.38351375
19.38299748
19.38246782
19.38192679
19.38137625
19.38081788
19.38025317
19.3796834
19.37910969
19.37853296
19.37795397
19.37737332
19.37679147
19.3762088
19.37562556
19.37504195
19.37480325
19.37491028
19.37501812
19.37512733
19.37523845
19.37535204
19.37546866
19.37558889
19.37571329
19.37584244
19.37597693
19.37611736
19.37626433
19.37641845
19.37658033
19.37675059
19.37692986
19.37711876
19.37731789
19.37752787
19.37774929
19.37798272
19.37822872
19.3784878
19.37876044
19.37904705
19.379348
19.37966356
19.37999394
19.38033924
19.38069942
19.38107435
19.38146371
19.38186703
19.38228369
19.38271282
19.38315338
19.3836041
19.38406344
19.38452967
19.38500077
19.38547449
19.38594832
19.38641953
19.38688514
19.38734201
19.38778678
19.38821599
19.38862605
19.38901334
19.38937423
19.38970516
19.39000265
19.39026343
19.39048444
19.39066294
19.39079652
19.39088314
19.39092127
19.39090968
19.39084777
19.3907354
19.39057291
19.39036111
19.39010124
19.38979496
19.38944432
19.38905165
19.38861956
19.38815086
19.3876485
19.38711549
19.3865549
19.38596974
19.38536293
19.38473731
19.38409551
19.38344002
19.38277307
19.38209671
19.38141273
19.38072269
19.38002794
19.37932959
19.37862855
19.37792555
19.37722116
19.3765158
19.37580979
19.37510336
19.37481215
19.37493706
19.37506292
19.37519037
19.37532007
19.37545264
19.37558876
19.37572908
19.37587427
19.37602502
19.376182
19.37634591
19.37651746
19.37669735
19.37688632
19.37708507
19.37729434
19.37751485
19.37774733
19.37799247
19.37825098
19.37852353
19.37881076
19.37911329
19.37943166
19.37976637
19.38011784
19.38048641
19.38087232
19.38127568
19.38169647
19.38213452
19.38258947
19.3830608
19.38354775
19.38404935
19.38456437
19.38509131
19.38562843
19.38617366
19.38672466
19.38727881
19.38783316
19.38838453
19.38892944
19.38946419
19.38998487
19.3904874
19.3909676
19.3914212
19.39184394
19.39223164
19.39258024
19.39288587
19.39314496
19.39335426
19.39351095
19.39361265
19.39365753
19.39364417
19.39357185
19.39344044
19.3932503
19.3930024
19.39269822
19.3923397
19.39192924
19.39146961
19.39096386
19.39041531
19.3898274
19.3892037
19.38854779
19.38786321
19.3871534
19.38642166
19.38567111
19.38490462
19.38412484
19.38333414
19.38253463
19.38172813
19.3809162
19.38010013
19.37928099
19.37845963
19.37763669
19.37681266
19.37598793
19.37516275
19.37482066
19.37496269
19.3751058
19.37525072
19.37539818
19.37554893
19.37570371
19.37586326
19.37602836
19.37619977
19.37637828
19.37656467
19.37675975
19.37696433
19.37717922
19.37740526
19.37764326
19.37789406
19.37815846
19.3784373
19.37873135
19.37904138
19.37936813
19.3797123
19.38007451
19.38045535
19.38085528
19.38127471
19.38171389
19.38217298
19.38265195
19.38315062
19.38366859
19.38420526
19.38475978
19.38533106
19.38591769
19.386518
19.38712998
19.38775129
19.38837928
19.38901095
19.38964297
19.39027168
19.39089312
19.39150309
19.3920971
19.39267051
19.39321852
19.39373627
19.39421889
19.39466158
19.39505969
19.39540881
19.39570483
19.39594404
19.39612319
19.39623958
19.3962911
19.39627612
19.39619382
19.39604405
19.39582724
19.3955445
19.39519751
19.39478853
19.3943203
19.39379599
19.39321912
19.39259346
19.391923
19.39121179
19.39046394
19.3896835
19.38887441
19.38804044
19.38718514
19.3863118
19.38542343
19.38452274
19.38361212
19.38269365
19.3817691
19.38083993
19.37990735
19.37897231
19.37803555
19.37709761
19.37615891
19.37521975
19.37482874
19.37498701
19.37514649
19.37530798
19.37547231
19.37564031
19.37581279
19.3759906
19.37617459
19.37636562
19.37656456
19.37677229
19.37698971
19.37721772
19.37745724
19.37770918
19.37797447
19.37825403
19.37854877
19.37885961
19.37918742
19.37953307
19.37989739
19.38028114
19.38068504
19.38110973
19.38155576
19.38202357
19.38251346
19.38302559
19.38355996
19.38411637
19.38469437
19.38529332
19.38591228
19.38655001
19.38720499
19.38787532
19.38855879
19.3892528
19.38995438
19.39066019
19.39136651
19.39206925
19.392764
19.39344603
19.39411035
19.39475174
19.39536484
19.39594419
19.39648432
19.39697987
19.39742559
19.39781655
19.39814813
19.39841616
19.398617
19.39874759
19.39880559
19.39878915
19.39869736
19.39853004
19.3982877
19.39797158
19.39758357
19.39712622
19.39660262
19.39601633
19.3953713
19.39467179
19.39392226
19.39312728
19.39229145
19.39141931
19.39051528
19.38958359
19.38862821
19.38765282
19.38666078
19.38565513
19.38463853
19.38361328
19.38258136
19.38154441
19.38050375
19.37946044
19.37841528
19.37736888
19.37632168
19.37527401
19.37483634
19.37500988
19.37518474
19.37536181
19.375542
19.37572621
19.37591533
19.37611031
19.37631206
19.37652154
19.37673969
19.37696749
19.37720592
19.37745598
19.37771865
19.37799496
19.37828592
19.37859254
19.37891583
19.37925678
19.37961638
19.37999556
19.38039524
19.38081627
19.38125944
19.38172546
19.38221492
19.38272833
19.38326602
19.38382819
19.38441482
19.38502571
19.3856604
19.38631816
19.38699798
19.38769853
19.38841811
19.38915469
19.38990582
19.39066865
19.39143994
19.39221601
19.39299277
19.39376575
19.39453007
19.39528055
19.39601167
19.39671769
19.39739269
19.39803066
19.39862556
19.39917146
19.39966258
19.40009345
19.40045897
19.40075454
19.40097612
19.40112034
19.40118459
19.40116685
19.40106612
19.40088219
19.40061562
19.4002678
19.39984084
19.39933754
19.39876134
19.39811617
19.39740643
19.3966368
19.39581223
19.39493777
19.39401849
19.39305942
19.39206544
19.39104118
19.38999104
19.38891907
19.38782897
19.38672406
19.38560728
19.38448114
19.38334782
19.38220909
19.3810664
19.37992091
19.37877347
19.37762474
19.3764752
19.37532518
19.3748434
19.37503114
19.37522031
19.37541188
19.37560682
19.3758061
19.37601071
19.37622165
19.37643993
19.37666657
19.3769026
19.37714907
19.37740705
19.37767761
19.37796183
19.37826082
19.37857568
19.37890749
19.37925735
19.37962635
19.38001554
19.38042596
19.38085859
19.38131435
19.38179412
19.38229865
19.38282862
19.38338455
19.38396684
19.38457569
19.38521111
19.38587287
19.3865605
19.38727322
19.38800994
19.38876922
19.38954926
19.39034783
19.39116231
19.39198963
19.39282625
19.39366821
19.39451108
19.39534999
19.39617966
19.39699445
19.39778838
19.3985552
19.39928848
19.39998165
19.40062816
19.40122153
19.40175547
19.40222401
19.4026216
19.4029432
19.40318442
19.40334157
19.40341182
19.40339295
19.40328387
19.40308437
19.40279506
19.40241746
19.40195388
19.40140739
19.40078174
19.40008123
19.39931067
19.39847517
19.39758012
19.39663103
19.39563345
19.39459283
19.39351448
19.39240347
19.39126455
19.39010214
19.38892024
19.38772247
19.38651198
19.38529152
19.38406342
19.3828296
19.38159162
19.3803507
19.37910778
19.37786354
19.37661847
19.37537293
19.37484989
19.37505068
19.37525299
19.37545787
19.37566636
19.37587949
19.37609833
19.37632394
19.3765574
19.3767998
19.37705226
19.37731589
19.37759183
19.37788124
19.37818528
19.37850511
19.37884193
19.3791969
19.37957121
19.379966
19.38038241
19.38082156
19.3812845
19.38177223
19.38228568
19.38282568
19.38339294
19.38398805
19.38461143
19.38526331
19.38594371
19.38665239
19.38738886
19.3881523
19.38894155
19.38975508
19.39059098
19.39144687
19.39231994
19.39320692
19.39410403
19.39500702
19.39591114
19.39681118
19.39770148
19.39857596
19.39942822
19.40025154
19.40103898
19.4017835
19.40247804
19.40311561
19.40368945
19.40419311
19.40462061
19.40496652
19.4052261
19.40539537
19.40547128
19.40545144
19.40533468
19.40512076
19.40481037
19.40440513
19.40390755
19.40332096
19.4026494
19.40189752
19.4010705
19.40017388
19.39921345
19.39819517
19.39712499
19.39600882
19.39485234
19.39366101
19.39243995
19.39119388
19.38992712
19.38864351
19.38734647
19.38603891
19.38472332
19.38340175
19.38207585
19.38074693
19.37941596
19.37808365
19.37675053
19.37541695
19.37485577
19.37506836
19.37528257
19.3754995
19.37572025
19.37594593
19.37617765
19.37641654
19.37666374
19.37692042
19.37718775
19.37746691
19.37775912
19.3780656
19.37838758
19.3787263
19.37908301
19.37945897
19.37985542
19.38027358
19.38071468
19.38117987
19.38167029
19.38218701
19.38273101
19.38330318
19.38390429
19.38453496
19.38519564
19.38588659
19.38660784
19.38735917
19.38814003
19.38894959
19.38978663
19.39064953
19.39153628
19.39244437
19.39337084
19.39431221
19.39526448
19.39622316
19.3971832
19.39813908
19.39908478
19.40001385
19.40091946
19.40179448
19.40263153
19.4034231
19.40416167
19.40483978
19.40545023
19.40598614
19.40644113
19.40680939
19.40708588
19.40726635
19.40734752
19.40732686
19.40720313
19.40697606
19.4066464
19.4062159
19.40568723
19.40506396
19.4043504
19.40355154
19.4026729
19.4017204
19.40070023
19.39961873
19.39848228
19.39729712
19.39606936
19.39480478
19.39350882
19.39218653
19.39084246
19.38948071
19.38810488
19.38671808
19.38532291
19.38392156
19.38251575
19.38110685
19.37969588
19.37828358
19.37687047
19.37545692
19.37486099
19.37508408
19.37530887
19.37553652
19.37576817
19.376005
19.37624817
19.37649886
19.37675829
19.37702766
19.37730822
19.3776012
19.37790788
19.37822954
19.37856748
19.378923
19.37929742
19.37969205
19.3801082
19.38054716
19.38101022
19.3814986
19.3820135
19.38255604
19.38312725
19.38372808
19.38435935
19.38502171
19.38571565
19.38644145
19.38719914
19.38798851
19.38880901
19.38965975
19.39053947
19.39144649
19.3923787
19.39333347
19.3943077
19.39529775
19.39629943
19.39730799
19.39831816
19.3993241
19.4003195
19.40129756
19.4022511
19.40317257
19.40405421
19.40488809
19.40566627
19.40638088
19.4070243
19.40758928
19.40806904
19.40845749
19.40874925
19.40893984
19.40902582
19.40900449
19.40887454
19.4086357
19.40828877
19.40783558
19.407279
19.40662279
19.40587153
19.4050305
19.40410553
19.40310288
19.40202911
19.40089093
19.39969504
19.39844808
19.39715645
19.39582628
19.39446329
19.39307279
19.39165958
19.39022797
19.38878173
19.38732413
19.3858579
19.38438531
19.38290818
19.3814279
19.37994556
19.37846189
19.37697744
19.37549258
19.37486553
19.37509774
19.37533172
19.37556868
19.37580981
19.37605633
19.37630945
19.37657041
19.37684046
19.37712087
19.37741292
19.37771791
19.37803717
19.37837203
19.37872384
19.37909397
19.37948378
19.37989465
19.38032794
19.380785
19.38126717
19.38177573
19.38231192
19.38287692
19.38347183
19.38409762
19.38475515
19.38544511
19.38616803
19.38692419
19.38771366
19.38853621
19.38939126
19.39027793
19.39119491
19.39214045
19.39311235
19.39410792
19.3951239
19.39615651
19.3972014
19.39825362
19.39930767
19.40035746
19.40139641
19.40241743
19.40341299
19.40437522
19.405296
19.40616704
19.40698002
19.40772671
19.40839913
19.40898968
19.40949126
19.40989748
19.41020272
19.41040226
19.4104925
19.41047064
19.41033526
19.41008613
19.40972406
19.409251
19.40866995
19.40798486
19.40720053
19.40632251
19.40535692
19.40431032
19.40318959
19.40200174
19.40075382
19.39945275
19.39810524
19.39671769
19.39529609
19.39384596
19.39237234
19.39087971
19.38937199
19.38785259
19.38632435
19.38478961
19.38325027
19.38170776
19.38016318
19.37861731
19.37707068
19.37552365
19.37486935
19.37510926
19.37535099
19.3755958
19.37584492
19.3760996
19.37636111
19.37663073
19.37690973
19.37719944
19.37750119
19.37781631
19.37814618
19.37849217
19.37885569
19.37923814
19.37964093
19.3800655
19.38051325
19.38098558
19.38148387
19.38200946
19.38256363
19.3831476
19.38376251
19.38440937
19.38508908
19.38580237
19.38654977
19.38733161
19.38814793
19.38899852
19.38988282
19.39079988
19.39174838
19.39272653
19.39373206
19.39476217
19.39581353
19.39688223
19.39796376
19.39905301
19.4001443
19.40123132
19.40230726
19.40336477
19.40439604
19.40539294
19.40634701
19.40724967
19.40809228
19.4088663
19.40956342
19.41017576
19.41069596
19.41111734
19.41143408
19.41164129
19.4117352
19.41171291
19.41157296
19.4113151
19.41094018
19.41045023
19.40984838
19.40913873
19.40832631
19.40741686
19.40641676
19.40533282
19.40417221
19.40294219
19.40165009
19.40030311
19.3989082
19.39747199
19.3960007
19.39450005
19.39297525
19.39143093
19.38987117
19.38829946
19.38671874
19.38513143
19.38353947
19.38194434
19.38034715
19.37874868
19.37714949
19.37554991
19.37487244
19.37511856
19.37536655
19.3756177
19.37587327
19.37613455
19.37640284
19.37667944
19.37696568
19.37726291
19.37757248
19.37789579
19.37823422
19.37858921
19.37896218
19.37935458
19.37976787
19.38020351
19.38066295
19.38114762
19.38165894
19.38219829
19.38276699
19.3833663
19.38399739
19.3846613
19.38535895
19.38609111
19.38685832
19.38766093
19.38849899
19.3893723
19.39028027
19.39122196
19.392196
19.39320057
19.39423335
19.39529148
19.39637154
19.39746951
19.39858078
19.3997001
19.40082163
19.40193891
19.4030449
19.40413207
19.4051924
19.40621749
19.40719866
19.40812706
19.40899379
19.40979006
19.41050733
19.41113743
19.4116728
19.41210656
19.4124327
19.41264617
19.4127431
19.41272049
19.41257684
19.41231189
19.41192652
19.41142285
19.41080408
19.41007448
19.4092392
19.4083042
19.40727603
19.40616175
19.40496872
19.40370444
19.40237646
19.40099219
19.39955879
19.39808309
19.39657148
19.39502985
19.39346354
19.39187733
19.39027538
19.38866128
19.38703805
19.38540816
19.38377358
19.38213584
19.38049605
19.37885502
19.37721327
19.37557117
19.37487478
19.37512559
19.37537831
19.37563424
19.37589469
19.37616096
19.37643437
19.37671625
19.37700795
19.37731086
19.37762635
19.37795583
19.37830074
19.37866253
19.37904264
19.37944257
19.37986379
19.3803078
19.38077607
19.38127007
19.38179124
19.382341
19.38292069
19.3835316
19.38417492
19.38485172
19.38556295
19.38630938
19.38709159
19.38790991
19.38876444
19.38965494
19.39058083
19.39154117
19.39253456
19.39355916
19.39461259
19.39569196
19.39679377
19.39791394
19.39904777
19.40018991
19.40133439
19.40247463
19.40360345
19.40471315
19.40579555
19.40684206
19.40784383
19.4087918
19.40967689
19.41049009
19.41122267
19.4118663
19.41241323
19.41285642
19.41318972
19.41340797
19.41350721
19.41348437
19.41333792
19.41306759
19.4126743
19.4121602
19.41152858
19.41078381
19.40993117
19.40897676
19.40792728
19.40678995
19.4055723
19.40428201
19.4029268
19.40151423
19.40005163
19.39854597
19.39700378
19.39543108
19.39383331
19.39221534
19.39058142
19.38893521
19.38727978
19.38561764
19.3839508
19.38228079
19.38060876
19.3789355
19.37726155
19.37558726
19.37487634
19.3751303
19.37538618
19.37564533
19.37590905
19.37617865
19.37645549
19.37674091
19.37703628
19.37734299
19.37766245
19.37799608
19.37834533
19.37871167
19.37909657
19.37950154
19.37992808
19.3803777
19.38085189
19.38135214
19.38187993
19.38243666
19.38302372
19.38364241
19.38429393
19.38497938
19.38569972
19.38645573
19.38724799
19.38807686
19.38894243
19.38984447
19.3907824
19.39175526
19.39276164
19.39379968
19.39486699
19.39596062
19.39707705
19.39821214
19.39936114
19.40051861
19.40167852
19.4028342
19.40397838
19.40510324
19.40620048
19.40726142
19.40827705
19.4092382
19.41013564
19.41096025
19.41170315
19.4123559
19.41291061
19.41336016
19.41369829
19.41391977
19.41402057
19.41399758
19.41384926
19.41357531
19.41317669
19.41265557
19.41201532
19.41126034
19.41039602
19.40942854
19.40836472
19.40721189
19.40597768
19.4046699
19.40329637
19.40186477
19.40038254
19.39885675
19.39729401
19.39570043
19.39408152
19.39244222
19.39078684
19.38911907
19.38744202
19.38575823
19.38406973
19.38237807
19.38068439
19.37898951
19.37729394
19.37559805
19.37487713
19.37513266
19.37539014
19.37565089
19.37591625
19.37618753
19.37646609
19.37675328
19.37705049
19.37735911
19.37768055
19.37801626
19.37836769
19.37873631
19.37912362
19.37953112
19.37996033
19.38041276
19.38088992
19.38139331
19.38192441
19.38248465
19.38307541
19.383698
19.38435364
19.38504343
19.38576833
19.38652915
19.38732646
19.38816063
19.38903174
19.38993957
19.39088354
19.39186268
19.39287559
19.39392038
19.39499466
19.39609546
19.39721923
19.39836182
19.39951843
19.40068361
19.40185128
19.40301472
19.40416662
19.4052991
19.40640381
19.407472
19.4084946
19.40946238
19.41036604
19.41119639
19.41194448
19.41260181
19.41316045
19.41361319
19.41395376
19.41417687
19.41427845
19.41425539
19.41410612
19.41383036
19.41342906
19.41290442
19.41225981
19.41149971
19.41062951
19.40965546
19.40858444
19.40742381
19.40618127
19.4048647
19.40348197
19.40204081
19.40054871
19.39901281
19.39743974
19.39583567
19.39420615
19.39255613
19.39088997
19.38921137
19.38752346
19.3858288
19.38412943
19.3824269
19.38072236
19.37901662
19.37731021
19.37560347
19.37487713
19.37513266
19.37539014
19.37565089
19.37591625
19.37618753
19.37646609
19.37675328
19.37705049
19.37735911
19.37768055
19.37801626
19.37836769
19.37873631
19.37912362
19.37953112
19.37996033
19.38041276
19.38088992
19.38139331
19.38192441
19.38248465
19.38307541
19.383698
19.38435363
19.38504343
19.38576833
19.38652914
19.38732646
19.38816063
19.38903174
19.38993957
19.39088354
19.39186268
19.39287559
19.39392038
19.39499466
19.39609545
19.39721923
19.39836182
19.39951843
19.40068361
19.40185128
19.40301472
19.40416661
19.40529909
19.40640381
19.407472
19.4084946
19.40946238
19.41036604
19.41119638
19.41194448
19.41260181
19.41316044
19.41361319
19.41395375
19.41417686
19.41427845
19.41425539
19.41410612
19.41383036
19.41342906
19.41290441
19.41225981
19.4114997
19.41062951
19.40965546
19.40858443
19.4074238
19.40618127
19.4048647
19.40348196
19.40204081
19.40054871
19.3990128
19.39743974
19.39583567
19.39420614
19.39255613
19.39088996
19.38921137
19.38752346
19.3858288
19.38412943
19.3824269
19.38072236
19.37901662
19.37731021
19.37560347
19.37487634
19.3751303
19.37538618
19.37564533
19.37590905
19.37617865
19.37645549
19.37674091
19.37703628
19.37734299
19.37766245
19.37799608
19.37834533
19.37871166
19.37909657
19.37950154
19.37992808
19.3803777
19.38085189
19.38135214
19.38187992
19.38243666
19.38302372
19.38364241
19.38429393
19.38497938
19.38569972
19.38645572
19.38724799
19.38807686
19.38894243
19.38984447
19.3907824
19.39175525
19.39276164
19.39379968
19.39486698
19.39596061
19.39707705
19.39821214
19.39936113
19.40051861
19.40167852
19.4028342
19.40397837
19.40510323
19.40620048
19.40726142
19.40827705
19.4092382
19.41013564
19.41096025
19.41170315
19.41235589
19.41291061
19.41336015
19.41369828
19.41391976
19.41402056
19.41399757
19.41384925
19.4135753
19.41317668
19.41265556
19.4120153
19.41126033
19.41039601
19.40942853
19.40836471
19.40721188
19.40597767
19.40466989
19.40329636
19.40186476
19.40038253
19.39885674
19.39729401
19.39570042
19.39408152
19.39244222
19.39078683
19.38911906
19.38744201
19.38575823
19.38406973
19.38237806
19.38068439
19.37898951
19.37729394
19.37559805
19.37487478
19.37512559
19.37537831
19.37563424
19.37589469
19.37616096
19.37643436
19.37671625
19.37700795
19.37731086
19.37762635
19.37795583
19.37830074
19.37866252
19.37904264
19.37944257
19.37986379
19.3803078
19.38077607
19.38127007
19.38179124
19.382341
19.38292069
19.3835316
19.38417492
19.38485172
19.38556295
19.38630938
19.38709159
19.38790991
19.38876444
19.38965493
19.39058083
19.39154117
19.39253456
19.39355915
19.39461259
19.39569195
19.39679376
19.39791394
19.39904777
19.40018991
19.40133439
19.40247462
19.40360344
19.40471314
19.40579554
19.40684206
19.40784382
19.40879179
19.40967688
19.41049008
19.41122266
19.41186629
19.41241322
19.4128564
19.4131897
19.41340796
19.41350719
19.41348435
19.4133379
19.41306757
19.41267428
19.41216018
19.41152856
19.41078379
19.40993116
19.40897674
19.40792726
19.40678993
19.40557228
19.404282
19.40292678
19.40151421
19.40005161
19.39854596
19.39700377
19.39543106
19.3938333
19.39221533
19.39058141
19.3889352
19.38727977
19.38561764
19.38395079
19.38228079
19.38060876
19.3789355
19.37726155
19.37558726
19.37487244
19.37511856
19.37536655
19.3756177
19.37587327
19.37613455
19.37640284
19.37667944
19.37696568
19.37726291
19.37757248
19.37789578
19.37823422
19.3785892
19.37896218
19.37935458
19.37976787
19.38020351
19.38066294
19.38114762
19.38165894
19.38219829
19.38276699
19.3833663
19.38399738
19.38466129
19.38535895
19.3860911
19.38685832
19.38766092
19.38849899
19.38937229
19.39028026
19.39122195
19.39219599
19.39320057
19.39423335
19.39529147
19.39637153
19.3974695
19.39858077
19.3997001
19.40082162
19.4019389
19.4030449
19.40413206
19.40519239
19.40621748
19.40719865
19.40812705
19.40899378
19.40979005
19.41050731
19.41113742
19.41167278
19.41210654
19.41243268
19.41264615
19.41274308
19.41272046
19.41257682
19.41231186
19.4119265
19.41142282
19.41080406
19.41007445
19.40923918
19.40830417
19.40727601
19.40616173
19.40496869
19.40370442
19.40237644
19.40099217
19.39955877
19.39808307
19.39657146
19.39502983
19.39346353
19.39187731
19.39027537
19.38866127
19.38703804
19.38540815
19.38377358
19.38213583
19.38049605
19.37885502
19.37721327
19.37557117
19.37486935
19.37510926
19.37535099
19.3755958
19.37584492
19.3760996
19.37636111
19.37663073
19.37690973
19.37719944
19.37750119
19.37781631
19.37814617
19.37849217
19.37885568
19.37923813
19.37964093
19.3800655
19.38051325
19.38098558
19.38148387
19.38200946
19.38256363
19.3831476
19.3837625
19.38440937
19.38508908
19.38580237
19.38654977
19.3873316
19.38814793
19.38899852
19.38988281
19.39079988
19.39174838
19.39272652
19.39373205
19.39476216
19.39581352
19.39688222
19.39796375
19.399053
19.40014429
19.40123131
19.40230725
19.40336475
19.40439603
19.40539293
19.406347
19.40724966
19.40809227
19.40886628
19.40956341
19.41017574
19.41069594
19.41111732
19.41143406
19.41164127
19.41173517
19.41171288
19.41157293
19.41131507
19.41094015
19.4104502
19.40984835
19.4091387
19.40832628
19.40741683
19.40641672
19.40533279
19.40417217
19.40294216
19.40165007
19.40030308
19.39890817
19.39747196
19.39600067
19.39450003
19.39297523
19.39143092
19.38987116
19.38829945
19.38671873
19.38513143
19.38353946
19.38194433
19.38034714
19.37874868
19.37714948
19.37554991
19.37486553
19.37509774
19.37533172
19.37556868
19.37580981
19.37605633
19.37630945
19.37657041
19.37684046
19.37712086
19.37741291
19.37771791
19.37803717
19.37837203
19.37872384
19.37909397
19.37948378
19.37989465
19.38032794
19.380785
19.38126717
19.38177572
19.38231192
19.38287692
19.38347182
19.38409761
19.38475514
19.38544511
19.38616802
19.38692419
19.38771366
19.3885362
19.38939126
19.39027793
19.3911949
19.39214044
19.39311234
19.39410791
19.39512389
19.3961565
19.39720139
19.39825361
19.39930765
19.40035745
19.4013964
19.40241741
19.40341297
19.40437521
19.40529599
19.40616702
19.40698
19.40772669
19.40839911
19.40898966
19.40949124
19.40989746
19.41020269
19.41040224
19.41049247
19.4104706
19.41033523
19.4100861
19.40972403
19.40925097
19.40866991
19.40798482
19.40720049
19.40632247
19.40535688
19.40431029
19.40318956
19.40200171
19.40075379
19.39945272
19.39810521
19.39671766
19.39529606
19.39384594
19.39237232
19.39087969
19.38937198
19.38785258
19.38632434
19.3847896
19.38325026
19.38170775
19.38016318
19.37861731
19.37707068
19.37552365
19.37486099
19.37508408
19.37530887
19.37553652
19.37576817
19.376005
19.37624816
19.37649886
19.37675829
19.37702766
19.37730821
19.3776012
19.37790788
19.37822954
19.37856748
19.378923
19.37929741
19.37969204
19.38010819
19.38054716
19.38101022
19.3814986
19.3820135
19.38255603
19.38312724
19.38372808
19.38435934
19.3850217
19.38571564
19.38644144
19.38719914
19.3879885
19.388809
19.38965974
19.39053946
19.39144648
19.39237869
19.39333346
19.39430769
19.39529774
19.39629942
19.39730798
19.39831814
19.39932409
19.40031949
19.40129755
19.40225108
19.40317256
19.40405419
19.40488807
19.40566625
19.40638086
19.40702428
19.40758925
19.40806902
19.40845746
19.40874922
19.40893981
19.40902578
19.40900445
19.4088745
19.40863566
19.40828873
19.40783554
19.40727896
19.40662275
19.40587149
19.40503046
19.40410548
19.40310284
19.40202907
19.40089089
19.399695
19.39844804
19.39715642
19.39582625
19.39446326
19.39307276
19.39165956
19.39022795
19.38878172
19.38732411
19.38585789
19.3843853
19.38290817
19.3814279
19.37994555
19.37846189
19.37697744
19.37549258
19.37485577
19.37506836
19.37528257
19.3754995
19.37572025
19.37594593
19.37617765
19.37641654
19.37666374
19.37692042
19.37718774
19.37746691
19.37775912
19.3780656
19.37838758
19.3787263
19.37908301
19.37945897
19.37985541