/*--------------------------------*- C++ -*----------------------------------*\
| =========                 |                                                 |
| \\      /  F ield         | OpenFOAM: The Open Source CFD Toolbox           |
|  \\    /   O peration     | Version:  2312                                  |
|   \\  /    A nd           | Website:  www.openfoam.com                      |
|    \\/     M anipulation  |                                                 |
\*---------------------------------------------------------------------------*/
FoamFile
{
    version     2.0;
    format      ascii;
    arch        "LSB;label=32;scalar=64";
    class       surfaceVectorField;
    location    "0.03/beam";
    object      Gamma;
}
// * * * * * * * * * * * * * * * * * * * * * * * * * * * * * * * * * * * * * //

dimensions      [0 0 0 0 0 0 0];

oriented        oriented;

internalField   nonuniform List<vector> 
59
(
(7.389142038e-07 5.565761619e-20 3.881153447e-11)
(7.389534811e-07 4.080069357e-20 4.642629977e-11)
(7.390188856e-07 1.947865559e-20 5.889010757e-11)
(7.391103294e-07 -4.678019738e-21 7.583642595e-11)
(7.392276906e-07 -2.822496109e-20 9.670273304e-11)
(7.393708121e-07 -4.837245635e-20 1.206837138e-10)
(7.395395025e-07 -6.32030408e-20 1.466744297e-10)
(7.397335342e-07 -7.170749799e-20 1.732064097e-10)
(7.399526463e-07 -7.369692563e-20 1.983815178e-10)
(7.401965412e-07 -6.964805259e-20 2.198075245e-10)
(7.404648878e-07 -6.052062175e-20 2.345421124e-10)
(7.407573193e-07 -4.756834465e-20 2.390535191e-10)
(7.410734342e-07 -3.217016154e-20 2.292056163e-10)
(7.414127958e-07 -1.569256223e-20 2.002796256e-10)
(7.417749328e-07 6.135251742e-22 1.470420458e-10)
(7.421593384e-07 1.568047942e-20 6.387377598e-11)
(7.425654713e-07 2.866005598e-20 -5.502784479e-11)
(7.429927547e-07 3.893221307e-20 -2.153590332e-10)
(7.434405764e-07 4.609466693e-20 -4.223193855e-10)
(7.439082896e-07 4.993861923e-20 -6.80109216e-10)
(7.443952121e-07 5.041672274e-20 -9.913066409e-10)
(7.449006256e-07 4.760993804e-20 -1.356119433e-09)
(7.454237165e-07 4.169800613e-20 -1.77146354e-09)
(7.45963876e-07 3.293063029e-20 -2.230227531e-09)
(7.465200342e-07 2.162221062e-20 -2.7196391e-09)
(7.470915819e-07 8.130863415e-21 -3.220912171e-09)
(7.47677364e-07 -7.115066359e-21 -3.707221213e-09)
(7.482767133e-07 -2.362476069e-20 -4.143498129e-09)
(7.488883917e-07 -4.079177101e-20 -4.484609893e-09)
(7.495116767e-07 -5.790915263e-20 -4.675408832e-09)
(7.501452548e-07 -7.403990002e-20 -4.649790852e-09)
(7.507883508e-07 -8.804605158e-20 -4.331173456e-09)
(7.514395848e-07 -9.856268928e-20 -3.63341753e-09)
(7.520981342e-07 -1.039359951e-19 -2.46191091e-09)
(7.52762557e-07 -1.022144237e-19 -7.176161086e-10)
(7.53431977e-07 -9.116900018e-20 1.701111369e-09)
(7.541048772e-07 -6.833927802e-20 4.889928518e-09)
(7.547802929e-07 -3.109100177e-20 8.935947555e-09)
(7.554565766e-07 2.321741148e-20 1.390326782e-08)
(7.56132587e-07 9.712648323e-20 1.982989204e-08)
(7.568064333e-07 1.927394214e-19 2.670656412e-08)
(7.574766554e-07 3.115537937e-19 3.447367446e-08)
(7.581409731e-07 4.539154082e-19 4.299366144e-08)
(7.587974769e-07 6.187900912e-19 5.204876479e-08)
(7.594434432e-07 8.029977413e-19 6.130902474e-08)
(7.600765872e-07 1.000942181e-18 7.033202349e-08)
(7.606940446e-07 1.203673043e-18 7.853101174e-08)
(7.612937609e-07 1.398615324e-18 8.517782467e-08)
(7.618737403e-07 1.568602334e-18 8.937874986e-08)
(7.624336036e-07 1.691677206e-18 9.008137667e-08)
(7.629740875e-07 1.7403737e-18 8.606913823e-08)
(7.634986035e-07 1.68169603e-18 7.597169258e-08)
(7.640126465e-07 1.477091555e-18 5.829204328e-08)
(7.645247726e-07 1.082746194e-18 3.141796667e-08)
(7.650450045e-07 4.50875437e-19 -6.302514655e-09)
(7.655840555e-07 -4.695066002e-19 -5.655409195e-08)
(7.661491703e-07 -1.729190581e-18 -1.209145507e-07)
(7.667399551e-07 -3.377368472e-18 -2.008608121e-07)
(7.673398759e-07 -5.455260801e-18 -2.975516232e-07)
)
;

boundaryField
{
    left
    {
        type            calculated;
        value           uniform (-7.389011505e-07 -4.517228011e-14 -3.629643143e-11);
    }
    right
    {
        type            calculated;
        value           uniform (7.679072465e-07 -4.517511228e-14 -4.118576209e-07);
    }
    beam
    {
        type            empty;
        value           nonuniform List<vector> 0();
    }
}


// ************************************************************************* //
