/*--------------------------------*- C++ -*----------------------------------*\
| =========                 |                                                 |
| \\      /  F ield         | OpenFOAM: The Open Source CFD Toolbox           |
|  \\    /   O peration     | Version:  2312                                  |
|   \\  /    A nd           | Website:  www.openfoam.com                      |
|    \\/     M anipulation  |                                                 |
\*---------------------------------------------------------------------------*/
FoamFile
{
    version     2.0;
    format      ascii;
    arch        "LSB;label=32;scalar=64";
    class       surfaceVectorField;
    location    "0.03/beam";
    object      K;
}
// * * * * * * * * * * * * * * * * * * * * * * * * * * * * * * * * * * * * * //

dimensions      [0 -1 0 0 0 0 0];

oriented        oriented;

internalField   nonuniform List<vector> 
59
(
(-1.443208613e-21 4.153089314e-07 -6.460002424e-16)
(-2.885511541e-21 8.869331916e-07 -1.180021461e-15)
(-4.326245825e-21 1.469685819e-06 -1.513734824e-15)
(-5.765184341e-21 2.215214953e-06 -1.595669404e-15)
(-7.202730088e-21 3.170027951e-06 -1.413522585e-15)
(-8.639757227e-21 4.37306325e-06 -9.895011519e-16)
(-1.00773511e-20 5.852688637e-06 -3.718652941e-16)
(-1.151678113e-20 7.623031214e-06 3.749272938e-16)
(-1.295906998e-20 9.679587579e-06 1.179792165e-15)
(-1.440781624e-20 1.199411129e-05 1.973242305e-15)
(-1.586105998e-20 1.450883373e-05 2.693744162e-15)
(-1.731853997e-20 1.713015704e-05 3.292018614e-15)
(-1.877762694e-20 1.972204649e-05 3.733359609e-15)
(-2.023551514e-20 2.209946016e-05 3.998258436e-15)
(-2.168882947e-20 2.402227446e-05 4.081694045e-15)
(-2.313410807e-20 2.519029993e-05 3.991478267e-15)
(-2.456916045e-20 2.524012947e-05 3.746026416e-15)
(-2.599333343e-20 2.374470944e-05 3.37187962e-15)
(-2.740686244e-20 2.021667481e-05 2.901236512e-15)
(-2.881382662e-20 1.411662539e-05 2.369677341e-15)
(-3.021869021e-20 4.867631217e-06 1.814199073e-15)
(-3.162837524e-20 -8.122250311e-06 1.271626507e-15)
(-3.305217595e-20 -2.542991216e-05 7.773113964e-16)
(-3.450025831e-20 -4.757584482e-05 3.642284107e-16)
(-3.597958774e-20 -7.496967337e-05 6.225965712e-17)
(-3.750104902e-20 -0.0001078468168 -1.024495419e-16)
(-3.906973587e-20 -0.0001461902889 -1.081058455e-16)
(-4.068518087e-20 -0.000189640586 6.199727873e-17)
(-4.234943718e-20 -0.0002373943609 4.184942382e-16)
(-4.753820382e-20 -0.0002880932918 9.647516224e-16)
(-5.345544999e-20 -0.0003397080055 1.695038817e-15)
(-5.525522426e-20 -0.0003894194441 2.592142598e-15)
(-5.70962051e-20 -0.0004335079555 3.624998549e-15)
(-5.899514609e-20 -0.000467253504 4.74583601e-15)
(-6.096084039e-20 -0.0004848642419 5.88693073e-15)
(-6.302862057e-20 -0.0004794375819 6.957421581e-15)
(-6.525891764e-20 -0.0004429788463 7.840493155e-15)
(-6.776370752e-20 -0.0003664816865 8.391131985e-15)
(-7.072436913e-20 -0.0002401026615 8.435122588e-15)
(-7.441409594e-20 -5.343302385e-05 7.769565538e-15)
(-7.920589555e-20 0.0002040953816 6.165854773e-15)
(-8.561662813e-20 0.0005426698927 3.375449179e-15)
(-9.432008099e-20 0.0009713870053 -8.60403866e-16)
(-1.061313164e-19 0.001497377097 -6.796657735e-15)
(-1.219893703e-19 0.002124739653 -1.466495517e-14)
(-1.429156905e-19 0.002853299905 -2.46483808e-14)
(-1.696767816e-19 0.003677187624 -3.684952765e-14)
(-2.027505707e-19 0.004583255656 -5.125187369e-14)
(-2.418265715e-19 0.005549380927 -6.767430865e-14)
(-2.855382808e-19 0.006542669915 -8.571921018e-14)
(-3.309065956e-19 0.007517671564 -1.047154374e-13)
(-3.731365791e-19 0.008414617711 -1.236572353e-13)
(-4.053756257e-19 0.009157870628 -1.411428667e-13)
(-4.193853345e-19 0.009654584381 -1.553147369e-13)
(-4.064837188e-19 0.009793846465 -1.638082807e-13)
(-3.599976551e-19 0.009446276837 -1.637122658e-13)
(-2.787807824e-19 0.00846443771 -1.515521258e-13)
(-1.719075517e-19 0.00668398364 -1.232998805e-13)
(-6.419095954e-20 0.00392597969 -7.442706157e-14)
)
;

boundaryField
{
    left
    {
        type            calculated;
        value           uniform (4.820666034e-35 -9.629656566e-35 3.369288941e-39);
    }
    right
    {
        type            calculated;
        value           uniform (5.440849637e-35 5.5672772e-31 2.810809486e-36);
    }
    beam
    {
        type            empty;
        value           nonuniform List<vector> 0();
    }
}


// ************************************************************************* //
