/*--------------------------------*- C++ -*----------------------------------*\
| =========                 |                                                 |
| \\      /  F ield         | OpenFOAM: The Open Source CFD Toolbox           |
|  \\    /   O peration     | Version:  2312                                  |
|   \\  /    A nd           | Website:  www.openfoam.com                      |
|    \\/     M anipulation  |                                                 |
\*---------------------------------------------------------------------------*/
FoamFile
{
    version     2.0;
    format      ascii;
    arch        "LSB;label=32;scalar=64";
    class       surfaceVectorField;
    location    "0.03/beam";
    object      M;
}
// * * * * * * * * * * * * * * * * * * * * * * * * * * * * * * * * * * * * * //

dimensions      [1 2 -2 0 0 0 0];

oriented        oriented;

internalField   nonuniform List<vector> 
59
(
(-8.318587891e-25 2.505085331e-10 -3.896568649e-19)
(-1.706343489e-24 5.349856841e-10 -7.11769355e-19)
(-2.637470941e-24 8.864939105e-10 -9.130585667e-19)
(-3.594659217e-24 1.336186647e-09 -9.624777776e-19)
(-4.502195448e-24 1.91211648e-09 -8.526060612e-19)
(-5.251856959e-24 2.63777053e-09 -5.968381042e-19)
(-5.72557831e-24 3.530259848e-09 -2.242836795e-19)
(-5.824192129e-24 4.598105706e-09 2.261772829e-19)
(-5.497119695e-24 5.838591713e-09 7.116676242e-19)
(-4.766983727e-24 7.234680013e-09 1.190273653e-18)
(-3.744951369e-24 8.751525381e-09 1.624878991e-18)
(-2.631711556e-24 1.03326709e-08 1.985758839e-18)
(-1.701040696e-24 1.189606234e-08 2.25197852e-18)
(-1.267080596e-24 1.333008498e-08 2.411770014e-18)
(-1.638250754e-24 1.448989964e-08 2.462103861e-18)
(-3.064284746e-24 1.519443625e-08 2.40769101e-18)
(-5.684654165e-24 1.522449273e-08 2.259638062e-18)
(-9.487833975e-24 1.432247631e-08 2.033952776e-18)
(-1.429035394e-23 1.219441521e-08 1.75005523e-18)
(-1.974286777e-23 8.514950802e-09 1.429405064e-18)
(-2.536680864e-23 2.936087003e-09 1.094316333e-18)
(-3.062065579e-23 -4.899227676e-09 7.669991907e-19)
(-3.499343687e-23 -1.5338967e-08 4.687753236e-19)
(-3.811612503e-23 -2.869708353e-08 2.195327888e-19)
(-3.987571542e-23 -4.52206574e-08 3.729463705e-20)
(-4.05260839e-23 -6.505169002e-08 -6.216945419e-20)
(-4.077075727e-23 -8.817993559e-08 -6.571398802e-20)
(-4.182031595e-23 -1.143885465e-07 3.673942647e-20)
(-4.539663292e-23 -1.43192955e-07 2.516080958e-19)
(-5.32821443e-23 -1.737738403e-07 5.809273999e-19)
(-6.76389187e-23 -2.04907113e-07 1.021247742e-18)
(-9.173440276e-23 -2.348923568e-07 1.562196101e-18)
(-1.289341681e-22 -2.614859297e-07 2.185047731e-18)
(-1.820529418e-22 -2.818407721e-07 2.861004379e-18)
(-2.535642543e-22 -2.924633226e-07 3.549235772e-18)
(-3.45480933e-22 -2.891900372e-07 4.194959645e-18)
(-4.593991921e-22 -2.671986384e-07 4.727742251e-18)
(-5.968747451e-22 -2.210566225e-07 5.060144672e-18)
(-7.603273499e-22 -1.44826564e-07 5.087116641e-18)
(-9.547662303e-22 -3.223005192e-08 4.686308093e-18)
(-1.190635667e-21 1.231074769e-07 3.719863629e-18)
(-1.488127268e-21 3.273308819e-07 2.037901989e-18)
(-1.883160583e-21 5.859270422e-07 -5.156213105e-19)
(-2.435115155e-21 9.031969014e-07 -4.094465905e-18)
(-3.235785857e-21 1.281613212e-06 -8.838341279e-18)
(-4.418527938e-21 1.721070556e-06 -1.485768212e-17)
(-6.165229397e-21 2.218028094e-06 -2.221439146e-17)
(-8.707724664e-21 2.764555646e-06 -3.089854888e-17)
(-1.231800152e-20 3.347308884e-06 -4.080098765e-17)
(-1.7280646e-20 3.946446896e-06 -5.168198111e-17)
(-2.383867758e-20 4.53455424e-06 -6.313686334e-17)
(-3.210463474e-20 5.075579598e-06 -7.4559183e-17)
(-4.192960684e-20 5.523899353e-06 -8.510369295e-17)
(-5.272829901e-20 5.823510135e-06 -9.36502384e-17)
(-6.326786299e-20 5.907511074e-06 -9.877293053e-17)
(-7.144133346e-20 5.69786194e-06 -9.871620369e-17)
(-7.40703243e-20 5.105630325e-06 -9.138476232e-17)
(-6.679911446e-20 4.031685356e-06 -7.434956149e-17)
(-4.417449861e-20 2.368095985e-06 -4.487972328e-17)
)
;

boundaryField
{
    left
    {
        type            calculated;
        value           uniform (5.815506888e-38 -5.808474026e-38 2.114052072e-42);
    }
    right
    {
        type            calculated;
        value           uniform (6.564345446e-38 3.358103665e-34 1.413509413e-39);
    }
    beam
    {
        type            empty;
        value           nonuniform List<vector> 0();
    }
}


// ************************************************************************* //
