/*--------------------------------*- C++ -*----------------------------------*\
| =========                 |                                                 |
| \\      /  F ield         | OpenFOAM: The Open Source CFD Toolbox           |
|  \\    /   O peration     | Version:  2312                                  |
|   \\  /    A nd           | Website:  www.openfoam.com                      |
|    \\/     M anipulation  |                                                 |
\*---------------------------------------------------------------------------*/
FoamFile
{
    version     2.0;
    format      ascii;
    arch        "LSB;label=32;scalar=64";
    class       pointVectorField;
    location    "0.03/beam";
    object      pointW;
}
// * * * * * * * * * * * * * * * * * * * * * * * * * * * * * * * * * * * * * //

dimensions      [0 1 0 0 0 0 0];

internalField   nonuniform List<vector> 
1952
(
(5.62249534e-09 2.295559487e-17 -3.662330855e-12)
(5.514459091e-09 2.255140519e-17 -3.591963532e-12)
(5.194510993e-09 2.125036258e-17 -3.383562961e-12)
(4.674936197e-09 1.908195824e-17 -3.045130988e-12)
(3.97570862e-09 1.604619215e-17 -2.589678038e-12)
(3.123689731e-09 1.25767452e-17 -2.034700099e-12)
(2.151630568e-09 8.67361738e-18 -1.401531235e-12)
(1.096894016e-09 4.33680869e-18 -7.145075547e-13)
(-5.772027697e-18 0 -2.2955603e-17)
(-1.096894027e-09 -4.33680869e-18 7.144625603e-13)
(-2.151630578e-09 -8.67361738e-18 1.401488734e-12)
(-3.123689741e-09 -1.25767452e-17 2.034661935e-12)
(-3.975708628e-09 -1.604619215e-17 2.589645512e-12)
(-4.674936204e-09 -1.908195824e-17 3.0451054e-12)
(-5.194510997e-09 -2.125036258e-17 3.383545614e-12)
(-5.514459093e-09 -2.255140519e-17 3.591954859e-12)
(-5.62249534e-09 -2.295559487e-17 3.662330855e-12)
(-5.514459091e-09 -2.255140519e-17 3.591963532e-12)
(-5.194510993e-09 -2.125036258e-17 3.383562961e-12)
(-4.674936197e-09 -1.908195824e-17 3.045130988e-12)
(-3.97570862e-09 -1.604619215e-17 2.589678038e-12)
(-3.123689731e-09 -1.25767452e-17 2.034700099e-12)
(-2.151630568e-09 -8.67361738e-18 1.401531235e-12)
(-1.096894016e-09 -4.33680869e-18 7.145075547e-13)
(5.772027163e-18 0 2.2955603e-17)
(1.096894027e-09 4.33680869e-18 -7.144625603e-13)
(2.151630578e-09 8.67361738e-18 -1.401488734e-12)
(3.123689741e-09 1.25767452e-17 -2.034661935e-12)
(3.975708628e-09 1.604619215e-17 -2.589645512e-12)
(4.674936204e-09 1.908195824e-17 -3.0451054e-12)
(5.194510997e-09 2.125036258e-17 -3.383545614e-12)
(5.514459093e-09 2.255140519e-17 -3.591954859e-12)
(3.826130005e-08 9.587533221e-16 6.202868511e-08)
(3.815397052e-08 9.583263003e-16 6.202875176e-08)
(3.783611534e-08 9.569168374e-16 6.202894915e-08)
(3.731993931e-08 9.549652735e-16 6.20292697e-08)
(3.662528568e-08 9.519295074e-16 6.202970109e-08)
(3.577884022e-08 9.484600605e-16 6.203022675e-08)
(3.481313971e-08 9.445569327e-16 6.203082646e-08)
(3.376530265e-08 9.40220124e-16 6.203147719e-08)
(3.267558388e-08 9.358833153e-16 6.203215393e-08)
(3.158586512e-08 9.315465066e-16 6.203283067e-08)
(3.053802806e-08 9.272096979e-16 6.20334814e-08)
(2.957232756e-08 9.233065701e-16 6.203408112e-08)
(2.87258821e-08 9.198371231e-16 6.203460678e-08)
(2.803122847e-08 9.168013571e-16 6.203503818e-08)
(2.751505244e-08 9.144161123e-16 6.203535874e-08)
(2.719719727e-08 9.132234899e-16 6.203555614e-08)
(2.708986773e-08 9.128419702e-16 6.203562279e-08)
(2.719719727e-08 9.132234899e-16 6.203555615e-08)
(2.751505244e-08 9.144161123e-16 6.203535876e-08)
(2.803122848e-08 9.168013571e-16 6.20350382e-08)
(2.87258821e-08 9.198371231e-16 6.203460681e-08)
(2.957232757e-08 9.233065701e-16 6.203408116e-08)
(3.053802807e-08 9.272096979e-16 6.203348144e-08)
(3.158586513e-08 9.315465066e-16 6.203283071e-08)
(3.26755839e-08 9.358833153e-16 6.203215397e-08)
(3.376530266e-08 9.40220124e-16 6.203147724e-08)
(3.481313972e-08 9.445569327e-16 6.203082651e-08)
(3.577884022e-08 9.484600605e-16 6.203022678e-08)
(3.662528569e-08 9.519295074e-16 6.202970112e-08)
(3.731993931e-08 9.549652735e-16 6.202926972e-08)
(3.783611534e-08 9.569168374e-16 6.202894916e-08)
(3.815397052e-08 9.583263003e-16 6.202875177e-08)
(7.082533152e-08 8.933411353e-16 1.232200183e-07)
(7.072021622e-08 8.92840489e-16 1.232200799e-07)
(7.040891853e-08 8.916478667e-16 1.232202624e-07)
(6.990339142e-08 8.894794623e-16 1.232205587e-07)
(6.922306878e-08 8.864436962e-16 1.232209574e-07)
(6.839408583e-08 8.829742493e-16 1.232214434e-07)
(6.744830812e-08 8.790711215e-16 1.232219977e-07)
(6.642208836e-08 8.743006319e-16 1.232225993e-07)
(6.535485093e-08 8.699638232e-16 1.232232248e-07)
(6.428761351e-08 8.656270145e-16 1.232238504e-07)
(6.326139375e-08 8.617238867e-16 1.232244519e-07)
(6.231561603e-08 8.578207589e-16 1.232250063e-07)
(6.148663308e-08 8.543513119e-16 1.232254922e-07)
(6.080631045e-08 8.513155458e-16 1.23225891e-07)
(6.030078334e-08 8.491471415e-16 1.232261873e-07)
(5.998948564e-08 8.477376787e-16 1.232263698e-07)
(5.988437035e-08 8.474296204e-16 1.232264314e-07)
(5.998948564e-08 8.477376787e-16 1.232263698e-07)
(6.030078334e-08 8.491471415e-16 1.232261873e-07)
(6.080631045e-08 8.513155458e-16 1.23225891e-07)
(6.148663309e-08 8.543513119e-16 1.232254923e-07)
(6.231561604e-08 8.578207589e-16 1.232250063e-07)
(6.326139375e-08 8.617238867e-16 1.23224452e-07)
(6.428761351e-08 8.656270145e-16 1.232238504e-07)
(6.535485093e-08 8.699638232e-16 1.232232249e-07)
(6.642208836e-08 8.743006319e-16 1.232225993e-07)
(6.744830812e-08 8.790711215e-16 1.232219978e-07)
(6.839408584e-08 8.829742493e-16 1.232214434e-07)
(6.922306879e-08 8.864436962e-16 1.232209575e-07)
(6.990339142e-08 8.894794623e-16 1.232205587e-07)
(7.040891853e-08 8.916478667e-16 1.232202624e-07)
(7.072021622e-08 8.92840489e-16 1.232200799e-07)
(1.033007609e-07 8.257139099e-16 1.826185736e-07)
(1.031996572e-07 8.252946937e-16 1.826186312e-07)
(1.029002395e-07 8.239936511e-16 1.826188017e-07)
(1.024140048e-07 8.218252467e-16 1.826190787e-07)
(1.017596453e-07 8.187894807e-16 1.826194514e-07)
(1.009622989e-07 8.153200337e-16 1.826199056e-07)
(1.000526149e-07 8.114169059e-16 1.826204238e-07)
(9.906555873e-08 8.066464163e-16 1.82620986e-07)
(9.803905029e-08 8.023096076e-16 1.826215708e-07)
(9.701254183e-08 7.979727989e-16 1.826221555e-07)
(9.60254857e-08 7.940696711e-16 1.826227178e-07)
(9.511580171e-08 7.901665433e-16 1.82623236e-07)
(9.431845524e-08 7.866970964e-16 1.826236902e-07)
(9.366409576e-08 7.836613303e-16 1.826240629e-07)
(9.317786107e-08 7.814929259e-16 1.826243399e-07)
(9.287844344e-08 7.801918833e-16 1.826245104e-07)
(9.277733967e-08 7.798023921e-16 1.82624568e-07)
(9.287844344e-08 7.801918833e-16 1.826245104e-07)
(9.317786109e-08 7.814929259e-16 1.826243399e-07)
(9.366409576e-08 7.836613303e-16 1.826240629e-07)
(9.431845524e-08 7.866970964e-16 1.826236902e-07)
(9.511580173e-08 7.901665433e-16 1.82623236e-07)
(9.602548573e-08 7.940696711e-16 1.826227178e-07)
(9.701254186e-08 7.979727989e-16 1.826221556e-07)
(9.803905029e-08 8.023096076e-16 1.826215708e-07)
(9.906555876e-08 8.066464163e-16 1.826209861e-07)
(1.000526149e-07 8.114169059e-16 1.826204238e-07)
(1.009622989e-07 8.153200337e-16 1.826199057e-07)
(1.017596453e-07 8.187894807e-16 1.826194515e-07)
(1.024140048e-07 8.218252467e-16 1.826190787e-07)
(1.029002395e-07 8.239936511e-16 1.826188017e-07)
(1.031996572e-07 8.252946937e-16 1.826186312e-07)
(1.356643903e-07 7.552421548e-16 2.390556137e-07)
(1.355695595e-07 7.548215525e-16 2.390556669e-07)
(1.352887192e-07 7.535205099e-16 2.390558246e-07)
(1.34832653e-07 7.51568946e-16 2.390560806e-07)
(1.342188933e-07 7.485331799e-16 2.390564251e-07)
(1.334710183e-07 7.450637329e-16 2.39056845e-07)
(1.326177757e-07 7.411606051e-16 2.390573239e-07)
(1.316919616e-07 7.363901156e-16 2.390578437e-07)
(1.307291429e-07 7.320533069e-16 2.390583842e-07)
(1.297663243e-07 7.277164982e-16 2.390589247e-07)
(1.288405101e-07 7.238133704e-16 2.390594444e-07)
(1.279872676e-07 7.199102425e-16 2.390599234e-07)
(1.272393925e-07 7.164407956e-16 2.390603432e-07)
(1.266256328e-07 7.134050295e-16 2.390606878e-07)
(1.261695666e-07 7.110197847e-16 2.390609438e-07)
(1.258887264e-07 7.097187421e-16 2.390611015e-07)
(1.257938956e-07 7.093306345e-16 2.390611547e-07)
(1.258887264e-07 7.097187421e-16 2.390611015e-07)
(1.261695666e-07 7.110197847e-16 2.390609438e-07)
(1.266256328e-07 7.134050295e-16 2.390606878e-07)
(1.272393925e-07 7.164407956e-16 2.390603433e-07)
(1.279872676e-07 7.199102425e-16 2.390599234e-07)
(1.288405101e-07 7.238133704e-16 2.390594444e-07)
(1.297663243e-07 7.277164982e-16 2.390589247e-07)
(1.307291429e-07 7.320533069e-16 2.390583842e-07)
(1.316919616e-07 7.363901156e-16 2.390578437e-07)
(1.326177757e-07 7.411606051e-16 2.39057324e-07)
(1.334710183e-07 7.450637329e-16 2.39056845e-07)
(1.342188933e-07 7.485331799e-16 2.390564252e-07)
(1.34832653e-07 7.51568946e-16 2.390560806e-07)
(1.352887193e-07 7.535205099e-16 2.390558246e-07)
(1.355695595e-07 7.548215525e-16 2.390556669e-07)
(1.678847375e-07 6.817715802e-16 2.910481271e-07)
(1.677990677e-07 6.814210654e-16 2.910481765e-07)
(1.675453574e-07 6.800116026e-16 2.910483225e-07)
(1.671333486e-07 6.778431982e-16 2.910485597e-07)
(1.665788799e-07 6.748074322e-16 2.91048879e-07)
(1.659032519e-07 6.713379852e-16 2.91049268e-07)
(1.651324351e-07 6.674348574e-16 2.910497118e-07)
(1.642960573e-07 6.635317296e-16 2.910501933e-07)
(1.634262499e-07 6.591949209e-16 2.910506941e-07)
(1.625564424e-07 6.548581122e-16 2.910511949e-07)
(1.617200647e-07 6.500876226e-16 2.910516764e-07)
(1.609492479e-07 6.461844948e-16 2.910521202e-07)
(1.602736198e-07 6.427150478e-16 2.910525092e-07)
(1.597191512e-07 6.396792818e-16 2.910528285e-07)
(1.593071423e-07 6.375108774e-16 2.910530657e-07)
(1.590534321e-07 6.36318255e-16 2.910532118e-07)
(1.589677623e-07 6.358601375e-16 2.910532611e-07)
(1.590534321e-07 6.36318255e-16 2.910532118e-07)
(1.593071423e-07 6.375108774e-16 2.910530657e-07)
(1.597191512e-07 6.396792818e-16 2.910528285e-07)
(1.602736198e-07 6.427150478e-16 2.910525093e-07)
(1.609492479e-07 6.461844948e-16 2.910521203e-07)
(1.617200647e-07 6.500876226e-16 2.910516765e-07)
(1.625564424e-07 6.548581122e-16 2.910511949e-07)
(1.634262499e-07 6.591949209e-16 2.910506941e-07)
(1.642960574e-07 6.635317296e-16 2.910501933e-07)
(1.651324351e-07 6.674348574e-16 2.910497118e-07)
(1.659032519e-07 6.713379852e-16 2.91049268e-07)
(1.665788799e-07 6.748074322e-16 2.91048879e-07)
(1.671333486e-07 6.778431982e-16 2.910485598e-07)
(1.675453574e-07 6.800116026e-16 2.910483225e-07)
(1.677990677e-07 6.814210654e-16 2.910481765e-07)
(1.999221089e-07 6.056480138e-16 3.367073735e-07)
(1.998492702e-07 6.053100729e-16 3.367074189e-07)
(1.996335594e-07 6.039006101e-16 3.367075534e-07)
(1.992832592e-07 6.019490462e-16 3.367077717e-07)
(1.98811836e-07 5.989132801e-16 3.367080656e-07)
(1.982374001e-07 5.954438331e-16 3.367084238e-07)
(1.975820324e-07 5.915407053e-16 3.367088323e-07)
(1.968709231e-07 5.872038966e-16 3.367092757e-07)
(1.96131391e-07 5.828670879e-16 3.367097367e-07)
(1.953918589e-07 5.785302792e-16 3.367101978e-07)
(1.946807496e-07 5.741934705e-16 3.367106411e-07)
(1.940253819e-07 5.702903427e-16 3.367110497e-07)
(1.93450946e-07 5.668208958e-16 3.367114078e-07)
(1.929795229e-07 5.637851297e-16 3.367117017e-07)
(1.926292226e-07 5.613998849e-16 3.367119201e-07)
(1.924135118e-07 5.602072625e-16 3.367120546e-07)
(1.923406732e-07 5.597365686e-16 3.367121e-07)
(1.924135118e-07 5.602072625e-16 3.367120546e-07)
(1.926292226e-07 5.613998849e-16 3.367119201e-07)
(1.929795229e-07 5.637851297e-16 3.367117017e-07)
(1.93450946e-07 5.668208958e-16 3.367114078e-07)
(1.940253819e-07 5.702903427e-16 3.367110497e-07)
(1.946807496e-07 5.741934705e-16 3.367106411e-07)
(1.953918589e-07 5.785302792e-16 3.367101978e-07)
(1.96131391e-07 5.828670879e-16 3.367097368e-07)
(1.968709231e-07 5.872038966e-16 3.367092757e-07)
(1.975820324e-07 5.915407053e-16 3.367088324e-07)
(1.982374001e-07 5.954438331e-16 3.367084238e-07)
(1.98811836e-07 5.989132801e-16 3.367080657e-07)
(1.992832592e-07 6.019490462e-16 3.367077718e-07)
(1.996335594e-07 6.039006101e-16 3.367075534e-07)
(1.998492702e-07 6.053100729e-16 3.367074189e-07)
(2.317306242e-07 5.276798899e-16 3.736593883e-07)
(2.316751891e-07 5.272475165e-16 3.736594301e-07)
(2.315110186e-07 5.260548941e-16 3.736595537e-07)
(2.312444166e-07 5.238864897e-16 3.736597545e-07)
(2.308856318e-07 5.208507237e-16 3.736600247e-07)
(2.304484474e-07 5.173812767e-16 3.736603539e-07)
(2.299496685e-07 5.134781489e-16 3.736607296e-07)
(2.294084664e-07 5.091413402e-16 3.736611372e-07)
(2.288456328e-07 5.048045315e-16 3.736615611e-07)
(2.282827991e-07 5.004677228e-16 3.736619849e-07)
(2.27741597e-07 4.961309141e-16 3.736623925e-07)
(2.272428181e-07 4.922277863e-16 3.736627682e-07)
(2.268056337e-07 4.887583394e-16 3.736630974e-07)
(2.264468489e-07 4.857225733e-16 3.736633676e-07)
(2.261802469e-07 4.835541689e-16 3.736635684e-07)
(2.260160765e-07 4.821447061e-16 3.736636921e-07)
(2.259606414e-07 4.81768522e-16 3.736637338e-07)
(2.260160765e-07 4.821447061e-16 3.736636921e-07)
(2.261802469e-07 4.835541689e-16 3.736635684e-07)
(2.26446849e-07 4.857225733e-16 3.736633677e-07)
(2.268056337e-07 4.887583394e-16 3.736630974e-07)
(2.272428181e-07 4.922277863e-16 3.736627682e-07)
(2.277415971e-07 4.961309141e-16 3.736623926e-07)
(2.282827991e-07 5.004677228e-16 3.73661985e-07)
(2.288456328e-07 5.048045315e-16 3.736615611e-07)
(2.294084665e-07 5.091413402e-16 3.736611372e-07)
(2.299496685e-07 5.134781489e-16 3.736607296e-07)
(2.304484475e-07 5.173812767e-16 3.73660354e-07)
(2.308856318e-07 5.208507237e-16 3.736600247e-07)
(2.312444166e-07 5.238864897e-16 3.736597545e-07)
(2.315110186e-07 5.260548941e-16 3.736595537e-07)
(2.316751891e-07 5.272475165e-16 3.736594301e-07)
(2.632617856e-07 4.490509882e-16 3.989962757e-07)
(2.632292779e-07 4.48642859e-16 3.989963139e-07)
(2.631330068e-07 4.473418164e-16 3.98996427e-07)
(2.629766689e-07 4.453902525e-16 3.989966106e-07)
(2.627662742e-07 4.423544864e-16 3.989968578e-07)
(2.625099051e-07 4.388850394e-16 3.98997159e-07)
(2.622174165e-07 4.349819116e-16 3.989975026e-07)
(2.619000506e-07 4.30211422e-16 3.989978755e-07)
(2.615699997e-07 4.258746134e-16 3.989982632e-07)
(2.612399487e-07 4.215378047e-16 3.98998651e-07)
(2.609225828e-07 4.176346768e-16 3.989990238e-07)
(2.606300942e-07 4.13731549e-16 3.989993674e-07)
(2.603737251e-07 4.102621021e-16 3.989996686e-07)
(2.601633304e-07 4.07226336e-16 3.989999158e-07)
(2.600069925e-07 4.048410912e-16 3.990000995e-07)
(2.599107214e-07 4.035400486e-16 3.990002126e-07)
(2.598782137e-07 4.031396172e-16 3.990002508e-07)
(2.599107214e-07 4.035400486e-16 3.990002126e-07)
(2.600069925e-07 4.048410912e-16 3.990000995e-07)
(2.601633304e-07 4.07226336e-16 3.989999158e-07)
(2.603737251e-07 4.102621021e-16 3.989996686e-07)
(2.606300942e-07 4.13731549e-16 3.989993675e-07)
(2.609225828e-07 4.176346768e-16 3.989990238e-07)
(2.612399487e-07 4.215378047e-16 3.98998651e-07)
(2.615699997e-07 4.258746134e-16 3.989982633e-07)
(2.619000506e-07 4.30211422e-16 3.989978755e-07)
(2.622174166e-07 4.349819116e-16 3.989975027e-07)
(2.625099051e-07 4.388850394e-16 3.98997159e-07)
(2.627662742e-07 4.423544864e-16 3.989968579e-07)
(2.629766689e-07 4.453902525e-16 3.989966107e-07)
(2.631330068e-07 4.473418164e-16 3.98996427e-07)
(2.632292779e-07 4.48642859e-16 3.989963139e-07)
(2.944653831e-07 3.71197071e-16 4.092523974e-07)
(2.944623114e-07 3.70797143e-16 4.092524323e-07)
(2.944532144e-07 3.694961004e-16 4.092525354e-07)
(2.944384416e-07 3.67327696e-16 4.092527028e-07)
(2.944185608e-07 3.6429193e-16 4.092529281e-07)
(2.943943357e-07 3.60822483e-16 4.092532027e-07)
(2.943666977e-07 3.569193552e-16 4.092535159e-07)
(2.943367088e-07 3.530162274e-16 4.092538558e-07)
(2.943055214e-07 3.486794187e-16 4.092542092e-07)
(2.942743339e-07 3.4434261e-16 4.092545627e-07)
(2.942443451e-07 3.395721204e-16 4.092549026e-07)
(2.94216707e-07 3.356689926e-16 4.092552158e-07)
(2.94192482e-07 3.321995456e-16 4.092554904e-07)
(2.941726012e-07 3.291637796e-16 4.092557157e-07)
(2.941578284e-07 3.269953752e-16 4.092558832e-07)
(2.941487314e-07 3.256943326e-16 4.092559863e-07)
(2.941456597e-07 3.252857763e-16 4.092560211e-07)
(2.941487314e-07 3.256943326e-16 4.092559863e-07)
(2.941578284e-07 3.269953752e-16 4.092558832e-07)
(2.941726012e-07 3.291637796e-16 4.092557158e-07)
(2.94192482e-07 3.321995456e-16 4.092554904e-07)
(2.942167071e-07 3.356689926e-16 4.092552159e-07)
(2.942443451e-07 3.395721204e-16 4.092549026e-07)
(2.94274334e-07 3.4434261e-16 4.092545628e-07)
(2.943055214e-07 3.486794187e-16 4.092542093e-07)
(2.943367089e-07 3.530162274e-16 4.092538558e-07)
(2.943666977e-07 3.569193552e-16 4.092535159e-07)
(2.943943358e-07 3.60822483e-16 4.092532027e-07)
(2.944185608e-07 3.6429193e-16 4.092529281e-07)
(2.944384416e-07 3.67327696e-16 4.092527028e-07)
(2.944532144e-07 3.694961004e-16 4.092525354e-07)
(2.944623114e-07 3.70797143e-16 4.092524323e-07)
(3.252938309e-07 2.956570154e-16 4.004095374e-07)
(3.253276372e-07 2.952282516e-16 4.00409569e-07)
(3.254277542e-07 2.938187887e-16 4.004096625e-07)
(3.255903376e-07 2.918672248e-16 4.004098143e-07)
(3.258091373e-07 2.888314588e-16 4.004100185e-07)
(3.260757479e-07 2.853620118e-16 4.004102675e-07)
(3.26379921e-07 2.81458884e-16 4.004105515e-07)
(3.267099652e-07 2.766883944e-16 4.004108596e-07)
(3.270532012e-07 2.723515857e-16 4.004111801e-07)
(3.273964372e-07 2.68014777e-16 4.004115006e-07)
(3.277264815e-07 2.641116492e-16 4.004118087e-07)
(3.280306546e-07 2.602085214e-16 4.004120927e-07)
(3.282972652e-07 2.567390744e-16 4.004123416e-07)
(3.285160649e-07 2.537033084e-16 4.004125459e-07)
(3.286786483e-07 2.513180636e-16 4.004126977e-07)
(3.287787652e-07 2.501254412e-16 4.004127912e-07)
(3.288125716e-07 2.497457166e-16 4.004128228e-07)
(3.287787653e-07 2.501254412e-16 4.004127912e-07)
(3.286786483e-07 2.513180636e-16 4.004126978e-07)
(3.285160649e-07 2.537033084e-16 4.00412546e-07)
(3.282972652e-07 2.567390744e-16 4.004123417e-07)
(3.280306546e-07 2.602085214e-16 4.004120927e-07)
(3.277264815e-07 2.641116492e-16 4.004118088e-07)
(3.273964372e-07 2.68014777e-16 4.004115006e-07)
(3.270532012e-07 2.723515857e-16 4.004111801e-07)
(3.267099652e-07 2.766883944e-16 4.004108597e-07)
(3.26379921e-07 2.81458884e-16 4.004105515e-07)
(3.260757479e-07 2.853620118e-16 4.004102675e-07)
(3.258091373e-07 2.888314588e-16 4.004100186e-07)
(3.255903376e-07 2.918672248e-16 4.004098143e-07)
(3.254277542e-07 2.938187887e-16 4.004096625e-07)
(3.253276373e-07 2.952282516e-16 4.00409569e-07)
(3.557079051e-07 2.239487526e-16 3.679578906e-07)
(3.557868043e-07 2.23562488e-16 3.67957919e-07)
(3.560204633e-07 2.222614454e-16 3.679580033e-07)
(3.563999101e-07 2.198762006e-16 3.679581402e-07)
(3.569105579e-07 2.168404345e-16 3.679583243e-07)
(3.575327897e-07 2.133709875e-16 3.679585487e-07)
(3.582426871e-07 2.094678597e-16 3.679588048e-07)
(3.590129641e-07 2.055647319e-16 3.679590826e-07)
(3.598140287e-07 2.012279232e-16 3.679593715e-07)
(3.606150934e-07 1.968911145e-16 3.679596604e-07)
(3.613853704e-07 1.92120625e-16 3.679599382e-07)
(3.620952678e-07 1.882174971e-16 3.679601943e-07)
(3.627174995e-07 1.847480502e-16 3.679604187e-07)
(3.632281473e-07 1.817122841e-16 3.679606029e-07)
(3.636075942e-07 1.797607202e-16 3.679607397e-07)
(3.638412532e-07 1.784596776e-16 3.67960824e-07)
(3.639201523e-07 1.780374492e-16 3.679608525e-07)
(3.638412532e-07 1.784596776e-16 3.67960824e-07)
(3.636075942e-07 1.797607202e-16 3.679607397e-07)
(3.632281473e-07 1.817122841e-16 3.679606029e-07)
(3.627174995e-07 1.847480502e-16 3.679604187e-07)
(3.620952678e-07 1.882174971e-16 3.679601943e-07)
(3.613853704e-07 1.92120625e-16 3.679599383e-07)
(3.606150934e-07 1.968911145e-16 3.679596605e-07)
(3.598140287e-07 2.012279232e-16 3.679593715e-07)
(3.590129641e-07 2.055647319e-16 3.679590826e-07)
(3.582426871e-07 2.094678597e-16 3.679588048e-07)
(3.575327897e-07 2.133709875e-16 3.679585488e-07)
(3.569105579e-07 2.168404345e-16 3.679583244e-07)
(3.563999101e-07 2.198762006e-16 3.679581402e-07)
(3.560204633e-07 2.222614454e-16 3.679580033e-07)
(3.557868043e-07 2.23562488e-16 3.67957919e-07)
(3.856808547e-07 1.574613979e-16 3.070115742e-07)
(3.858135941e-07 1.571008948e-16 3.070115996e-07)
(3.862067003e-07 1.55691432e-16 3.07011675e-07)
(3.868450789e-07 1.539567085e-16 3.070117975e-07)
(3.87704189e-07 1.509209424e-16 3.070119622e-07)
(3.88751027e-07 1.474514955e-16 3.07012163e-07)
(3.899453533e-07 1.435483676e-16 3.070123921e-07)
(3.912412616e-07 1.387778781e-16 3.070126406e-07)
(3.92588967e-07 1.344410694e-16 3.070128991e-07)
(3.939366724e-07 1.301042607e-16 3.070131576e-07)
(3.952325807e-07 1.262011329e-16 3.070134062e-07)
(3.96426907e-07 1.222980051e-16 3.070136353e-07)
(3.97473745e-07 1.188285581e-16 3.07013836e-07)
(3.983328551e-07 1.15792792e-16 3.070140008e-07)
(3.989712337e-07 1.131907068e-16 3.070141233e-07)
(3.993643399e-07 1.119980844e-16 3.070141987e-07)
(3.994970793e-07 1.115500897e-16 3.070142241e-07)
(3.993643399e-07 1.119980844e-16 3.070141987e-07)
(3.989712337e-07 1.131907068e-16 3.070141233e-07)
(3.983328551e-07 1.15792792e-16 3.070140009e-07)
(3.97473745e-07 1.188285581e-16 3.070138361e-07)
(3.96426907e-07 1.222980051e-16 3.070136353e-07)
(3.952325807e-07 1.262011329e-16 3.070134062e-07)
(3.939366724e-07 1.301042607e-16 3.070131577e-07)
(3.92588967e-07 1.344410694e-16 3.070128992e-07)
(3.912412616e-07 1.387778781e-16 3.070126407e-07)
(3.899453533e-07 1.435483676e-16 3.070123921e-07)
(3.88751027e-07 1.474514955e-16 3.070121631e-07)
(3.87704189e-07 1.509209424e-16 3.070119623e-07)
(3.868450789e-07 1.539567085e-16 3.070117975e-07)
(3.862067003e-07 1.55691432e-16 3.07011675e-07)
(3.858135941e-07 1.571008948e-16 3.070115996e-07)
(4.152077051e-07 9.735064828e-17 2.124984308e-07)
(4.154031457e-07 9.703609444e-17 2.124984533e-07)
(4.159819406e-07 9.562663161e-17 2.124985202e-07)
(4.169218657e-07 9.36750677e-17 2.124986287e-07)
(4.181867876e-07 9.063930162e-17 2.124987747e-07)
(4.197281134e-07 8.716985467e-17 2.124989527e-07)
(4.214865952e-07 8.326672685e-17 2.124991557e-07)
(4.233946427e-07 7.892991816e-17 2.12499376e-07)
(4.253789542e-07 7.459310947e-17 2.124996051e-07)
(4.273632657e-07 7.025630078e-17 2.124998342e-07)
(4.292713132e-07 6.591949209e-17 2.125000544e-07)
(4.31029795e-07 6.201636427e-17 2.125002575e-07)
(4.325711207e-07 5.854691731e-17 2.125004354e-07)
(4.338360426e-07 5.551115123e-17 2.125005815e-07)
(4.347759678e-07 5.312590645e-17 2.1250069e-07)
(4.353547627e-07 5.193328406e-17 2.125007568e-07)
(4.355502032e-07 5.14393354e-17 2.125007794e-07)
(4.353547627e-07 5.193328406e-17 2.125007568e-07)
(4.347759678e-07 5.312590645e-17 2.1250069e-07)
(4.338360426e-07 5.551115123e-17 2.125005815e-07)
(4.325711207e-07 5.854691731e-17 2.125004355e-07)
(4.31029795e-07 6.201636427e-17 2.125002575e-07)
(4.292713132e-07 6.591949209e-17 2.125000545e-07)
(4.273632657e-07 7.025630078e-17 2.124998342e-07)
(4.253789542e-07 7.459310947e-17 2.124996051e-07)
(4.233946427e-07 7.892991816e-17 2.12499376e-07)
(4.214865952e-07 8.326672685e-17 2.124991557e-07)
(4.197281134e-07 8.716985467e-17 2.124989527e-07)
(4.181867876e-07 9.063930162e-17 2.124987747e-07)
(4.169218657e-07 9.36750677e-17 2.124986287e-07)
(4.159819406e-07 9.562663161e-17 2.124985202e-07)
(4.154031457e-07 9.703609444e-17 2.124984534e-07)
(4.443102015e-07 4.447312086e-17 7.942870891e-08)
(4.445768038e-07 4.40186082e-17 7.942872866e-08)
(4.453663435e-07 4.293440603e-17 7.942878712e-08)
(4.466485041e-07 4.076600169e-17 7.942888208e-08)
(4.48373996e-07 3.77302356e-17 7.942900987e-08)
(4.504765327e-07 3.426078865e-17 7.942916558e-08)
(4.528752943e-07 3.035766083e-17 7.942934323e-08)
(4.554780797e-07 2.602085214e-17 7.942953599e-08)
(4.581848977e-07 2.168404345e-17 7.942973646e-08)
(4.608917156e-07 1.734723476e-17 7.942993693e-08)
(4.634945011e-07 1.301042607e-17 7.94301297e-08)
(4.658932626e-07 9.107298249e-18 7.943030735e-08)
(4.679957993e-07 5.637851297e-18 7.943046307e-08)
(4.697212913e-07 2.602085214e-18 7.943059086e-08)
(4.710034519e-07 4.33680869e-19 7.943068583e-08)
(4.717929916e-07 -1.084202172e-18 7.94307443e-08)
(4.720595939e-07 -1.438195946e-18 7.943076405e-08)
(4.717929916e-07 -1.084202172e-18 7.943074431e-08)
(4.710034519e-07 4.33680869e-19 7.943068584e-08)
(4.697212913e-07 2.602085214e-18 7.943059089e-08)
(4.679957993e-07 5.637851297e-18 7.94304631e-08)
(4.658932626e-07 9.107298249e-18 7.943030739e-08)
(4.634945011e-07 1.301042607e-17 7.943012974e-08)
(4.608917157e-07 1.734723476e-17 7.942993698e-08)
(4.581848977e-07 2.168404345e-17 7.942973651e-08)
(4.554780798e-07 2.602085214e-17 7.942953604e-08)
(4.528752943e-07 3.035766083e-17 7.942934327e-08)
(4.504765327e-07 3.426078865e-17 7.942916562e-08)
(4.48373996e-07 3.77302356e-17 7.94290099e-08)
(4.466485041e-07 4.076600169e-17 7.94288821e-08)
(4.453663435e-07 4.293440603e-17 7.942878714e-08)
(4.445768038e-07 4.40186082e-17 7.942872866e-08)
(4.730490658e-07 -6.538286463e-19 -9.674103375e-08)
(4.733941404e-07 -1.084202172e-18 -9.674101677e-08)
(4.744160751e-07 -2.385244779e-18 -9.674096647e-08)
(4.760756301e-07 -4.770489559e-18 -9.674088478e-08)
(4.783090075e-07 -7.806255642e-18 -9.674077485e-08)
(4.810304102e-07 -1.127570259e-17 -9.67406409e-08)
(4.84135229e-07 -1.517883041e-17 -9.674048807e-08)
(4.875041247e-07 -1.908195824e-17 -9.674032224e-08)
(4.910076742e-07 -2.341876693e-17 -9.674014978e-08)
(4.945112235e-07 -2.775557562e-17 -9.673997732e-08)
(4.978801194e-07 -3.252606517e-17 -9.673981149e-08)
(5.009849382e-07 -3.6429193e-17 -9.673965866e-08)
(5.037063409e-07 -3.989863995e-17 -9.67395247e-08)
(5.059397182e-07 -4.293440603e-17 -9.673941476e-08)
(5.075992733e-07 -4.488596994e-17 -9.673933307e-08)
(5.086212079e-07 -4.618701255e-17 -9.673928276e-08)
(5.089662826e-07 -4.656506824e-17 -9.673926577e-08)
(5.086212079e-07 -4.618701255e-17 -9.673928275e-08)
(5.075992733e-07 -4.488596994e-17 -9.673933305e-08)
(5.059397182e-07 -4.293440603e-17 -9.673941474e-08)
(5.037063409e-07 -3.989863995e-17 -9.673952467e-08)
(5.009849382e-07 -3.6429193e-17 -9.673965862e-08)
(4.978801194e-07 -3.252606517e-17 -9.673981145e-08)
(4.945112236e-07 -2.775557562e-17 -9.673997728e-08)
(4.910076742e-07 -2.341876693e-17 -9.674014974e-08)
(4.875041248e-07 -1.908195824e-17 -9.674032219e-08)
(4.84135229e-07 -1.517883041e-17 -9.674048802e-08)
(4.810304102e-07 -1.127570259e-17 -9.674064086e-08)
(4.783090075e-07 -7.806255642e-18 -9.674077482e-08)
(4.760756301e-07 -4.770489559e-18 -9.674088476e-08)
(4.744160751e-07 -2.385244779e-18 -9.674096645e-08)
(4.733941404e-07 -1.084202172e-18 -9.674101676e-08)
(5.015317253e-07 -3.786224919e-17 -3.196334143e-07)
(5.01960535e-07 -3.827233669e-17 -3.196334e-07)
(5.0323045e-07 -3.946495908e-17 -3.196333578e-07)
(5.05292709e-07 -4.206704429e-17 -3.196332891e-07)
(5.080680329e-07 -4.510281038e-17 -3.196331967e-07)
(5.114498051e-07 -4.857225733e-17 -3.196330842e-07)
(5.153080325e-07 -5.247538515e-17 -3.196329557e-07)
(5.19494417e-07 -5.637851297e-17 -3.196328164e-07)
(5.2384813e-07 -6.071532166e-17 -3.196326714e-07)
(5.282018429e-07 -6.505213035e-17 -3.196325265e-07)
(5.323882275e-07 -6.982261991e-17 -3.196323871e-07)
(5.362464549e-07 -7.372574773e-17 -3.196322587e-07)
(5.396282271e-07 -7.719519468e-17 -3.196321461e-07)
(5.42403551e-07 -8.023096076e-17 -3.196320537e-07)
(5.4446581e-07 -8.196568424e-17 -3.196319851e-07)
(5.457357249e-07 -8.337514706e-17 -3.196319428e-07)
(5.461645347e-07 -8.377348992e-17 -3.196319285e-07)
(5.457357249e-07 -8.337514706e-17 -3.196319428e-07)
(5.4446581e-07 -8.196568424e-17 -3.19631985e-07)
(5.42403551e-07 -8.023096076e-17 -3.196320537e-07)
(5.396282271e-07 -7.719519468e-17 -3.196321461e-07)
(5.362464549e-07 -7.372574773e-17 -3.196322587e-07)
(5.323882275e-07 -6.982261991e-17 -3.196323871e-07)
(5.282018429e-07 -6.505213035e-17 -3.196325265e-07)
(5.2384813e-07 -6.071532166e-17 -3.196326714e-07)
(5.19494417e-07 -5.637851297e-17 -3.196328163e-07)
(5.153080325e-07 -5.247538515e-17 -3.196329557e-07)
(5.114498051e-07 -4.857225733e-17 -3.196330841e-07)
(5.080680329e-07 -4.510281038e-17 -3.196331967e-07)
(5.05292709e-07 -4.206704429e-17 -3.196332891e-07)
(5.0323045e-07 -3.946495908e-17 -3.196333578e-07)
(5.01960535e-07 -3.827233669e-17 -3.196334e-07)
(5.299250767e-07 -6.731970426e-17 -5.913623193e-07)
(5.304396929e-07 -6.776263578e-17 -5.913623077e-07)
(5.319637233e-07 -6.91720986e-17 -5.913622733e-07)
(5.344386488e-07 -7.112366252e-17 -5.913622174e-07)
(5.377693265e-07 -7.41594286e-17 -5.913621423e-07)
(5.418278053e-07 -7.762887555e-17 -5.913620506e-07)
(5.4645808e-07 -8.153200337e-17 -5.913619461e-07)
(5.514821775e-07 -8.586881206e-17 -5.913618327e-07)
(5.567070864e-07 -9.020562075e-17 -5.913617147e-07)
(5.619319954e-07 -9.454242944e-17 -5.913615968e-07)
(5.669560929e-07 -9.887923813e-17 -5.913614834e-07)
(5.715863676e-07 -1.02782366e-16 -5.913613789e-07)
(5.756448463e-07 -1.062518129e-16 -5.913612872e-07)
(5.789755241e-07 -1.09287579e-16 -5.91361212e-07)
(5.814504496e-07 -1.116728238e-16 -5.913611562e-07)
(5.829744799e-07 -1.128654462e-16 -5.913611218e-07)
(5.834890962e-07 -1.132309441e-16 -5.913611101e-07)
(5.829744799e-07 -1.128654462e-16 -5.913611217e-07)
(5.814504496e-07 -1.116728238e-16 -5.913611561e-07)
(5.789755241e-07 -1.09287579e-16 -5.91361212e-07)
(5.756448463e-07 -1.062518129e-16 -5.913612872e-07)
(5.715863676e-07 -1.02782366e-16 -5.913613788e-07)
(5.669560929e-07 -9.887923813e-17 -5.913614833e-07)
(5.619319954e-07 -9.454242944e-17 -5.913615968e-07)
(5.567070864e-07 -9.020562075e-17 -5.913617147e-07)
(5.514821775e-07 -8.586881206e-17 -5.913618327e-07)
(5.4645808e-07 -8.153200337e-17 -5.913619461e-07)
(5.418278053e-07 -7.762887555e-17 -5.913620506e-07)
(5.377693265e-07 -7.41594286e-17 -5.913621422e-07)
(5.344386488e-07 -7.112366252e-17 -5.913622174e-07)
(5.319637233e-07 -6.91720986e-17 -5.913622733e-07)
(5.304396929e-07 -6.776263578e-17 -5.913623077e-07)
(5.584656458e-07 -8.949561999e-17 -9.118182038e-07)
(5.59063611e-07 -8.98803601e-17 -9.118181947e-07)
(5.608344776e-07 -9.107298249e-17 -9.11818168e-07)
(5.637102495e-07 -9.324138683e-17 -9.118181245e-07)
(5.675803736e-07 -9.627715292e-17 -9.11818066e-07)