/*--------------------------------*- C++ -*----------------------------------*\
| =========                 |                                                 |
| \\      /  F ield         | OpenFOAM: The Open Source CFD Toolbox           |
|  \\    /   O peration     | Version:  2312                                  |
|   \\  /    A nd           | Website:  www.openfoam.com                      |
|    \\/     M anipulation  |                                                 |
\*---------------------------------------------------------------------------*/
FoamFile
{
    version     2.0;
    format      ascii;
    arch        "LSB;label=32;scalar=64";
    class       surfaceVectorField;
    location    "0.03/beam";
    object      Q;
}
// * * * * * * * * * * * * * * * * * * * * * * * * * * * * * * * * * * * * * //

dimensions      [1 1 -2 0 0 0 0];

oriented        oriented;

internalField   nonuniform List<vector> 
59
(
(0.0001114253064 8.230534493e-18 6.008221691e-09)
(0.0001114312292 5.985653932e-18 7.153295899e-09)
(0.0001114410919 2.763709793e-18 9.026985363e-09)
(0.0001114548813 -8.867272889e-19 1.157334405e-08)
(0.0001114725789 -4.444985558e-18 1.470663512e-08)
(0.0001114941611 -7.489134915e-18 1.830428204e-08)
(0.0001115195989 -9.728958542e-18 2.219835058e-08)
(0.0001115488581 -1.101141806e-17 2.616601296e-08)
(0.0001115818993 -1.130763025e-17 2.99195988e-08)
(0.0001116186777 -1.068936832e-17 3.309700084e-08)
(0.0001116591433 -9.301540247e-18 3.525339083e-08)
(0.0001117032408 -7.333660209e-18 3.585539985e-08)
(0.0001117509097 -4.99435459e-18 3.427912854e-08)
(0.0001118020841 -2.490499809e-18 2.981356144e-08)
(0.0001118566929 -1.161123621e-20 2.167115471e-08)
(0.0001119146597 2.280447719e-18 9.007526716e-09)
(0.0001119759028 4.256957072e-18 -9.047713815e-09)
(0.0001120403352 5.823714228e-18 -3.334694629e-08)
(0.0001121078646 6.919504499e-18 -6.466536176e-08)
(0.0001121783935 7.512433977e-18 -1.036249149e-07)
(0.0001122518189 7.595170011e-18 -1.506001229e-07)
(0.0001123280327 7.179900419e-18 -2.056050942e-07)
(0.0001124069123 6.293859788e-18 -2.68154621e-07)
(0.0001124883661 4.975014617e-18 -3.371533171e-07)
(0.0001125722331 3.27123899e-18 -4.10649895e-07)
(0.0001126584218 1.237133906e-18 -4.857842912e-07)
(0.0001127467585 -1.061993497e-18 -5.584838268e-07)
(0.0001128371429 -3.551327485e-18 -6.234332227e-07)
(0.0001129293886 -6.138546788e-18 -6.738029206e-07)
(0.0001130233863 -8.713156576e-18 -7.012576432e-07)
(0.0001131189369 -1.113596934e-17 -6.958194192e-07)
(0.0001132159214 -1.323756119e-17 -6.459409718e-07)
(0.000113314128 -1.480841923e-17 -5.386518664e-07)
(0.0001134134274 -1.559865306e-17 -3.597234573e-07)
(0.000113513595 -1.531378301e-17 -9.42882872e-08)
(0.0001136144903 -1.361788417e-17 2.728841518e-07)
(0.0001137158763 -1.014066098e-17 7.560814512e-07)
(0.0001138176015 -4.48623348e-18 1.368261452e-06)
(0.0001139194173 3.741560813e-18 2.118861628e-06)
(0.0001140211624 1.492274945e-17 3.013333804e-06)
(0.0001141225794 2.93703138e-17 4.049948401e-06)
(0.0001142234995 4.730475608e-17 5.219329155e-06)
(0.0001143236595 6.877163892e-17 6.500295958e-06)
(0.0001144228841 9.360719632e-17 7.859529891e-06)
(0.0001145209034 1.213228999e-16 9.246767474e-06)
(0.0001146175282 1.510648679e-16 1.059476858e-05)
(0.0001147124662 1.814728699e-16 1.181455241e-05)
(0.0001148054843 2.106398467e-16 1.27958473e-05)
(0.0001148962204 2.359671247e-16 1.340352365e-05)
(0.0001149843267 2.541350392e-16 1.347863934e-05)
(0.0001150692766 2.609962982e-16 1.283772358e-05)
(0.0001151504875 2.515737804e-16 1.12743557e-05)
(0.0001152271315 2.200591489e-16 8.56339728e-06)
(0.0001152982493 1.598585295e-16 4.462727623e-06)
(0.0001153625935 6.379081529e-17 -1.275203683e-06)
(0.000115418763 -7.579498822e-17 -8.902305837e-06)
(0.0001154651338 -2.665033638e-16 -1.865360886e-05)
(0.0001155000578 -5.156791774e-16 -3.074816847e-05)
(0.0001155219406 -8.294427015e-16 -4.535613214e-05)
)
;

boundaryField
{
    left
    {
        type            calculated;
        value           uniform (-0.000111423338 -6.811798991e-12 -5.629975978e-09);
    }
    right
    {
        type            calculated;
        value           uniform (0.0001155295202 -6.812233137e-12 -6.260326901e-05);
    }
    beam
    {
        type            empty;
        value           nonuniform List<vector> 0();
    }
}


// ************************************************************************* //
