/*--------------------------------*- C++ -*----------------------------------*\
| =========                 |                                                 |
| \\      /  F ield         | OpenFOAM: The Open Source CFD Toolbox           |
|  \\    /   O peration     | Version:  2312                                  |
|   \\  /    A nd           | Website:  www.openfoam.com                      |
|    \\/     M anipulation  |                                                 |
\*---------------------------------------------------------------------------*/
FoamFile
{
    version     2.0;
    format      ascii;
    arch        "LSB;label=32;scalar=64";
    class       volVectorField;
    location    "0.03/beam";
    object      Theta;
}
// * * * * * * * * * * * * * * * * * * * * * * * * * * * * * * * * * * * * * //

dimensions      [0 0 0 0 0 0 0];

internalField   nonuniform List<vector> 
60
(
(7.953012191e-17 -4.422082381e-05 -1.464815884e-15)
(7.953604242e-17 -4.191163422e-05 -1.492876047e-15)
(7.953941997e-17 -4.095240602e-05 -1.544286754e-15)
(7.954288777e-17 -3.914704925e-05 -1.60994155e-15)
(7.954545877e-17 -3.779957438e-05 -1.6786094e-15)
(7.954732765e-17 -3.61160694e-05 -1.738386208e-15)
(7.954870325e-17 -3.455508949e-05 -1.778350505e-15)
(7.954958959e-17 -3.282340619e-05 -1.789657868e-15)
(7.955021817e-17 -3.107628675e-05 -1.765824629e-15)
(7.955064403e-17 -2.92004441e-05 -1.70515285e-15)
(7.955100764e-17 -2.724467074e-05 -1.607422273e-15)
(7.955136715e-17 -2.516406745e-05 -1.475605329e-15)
(7.955178458e-17 -2.297547641e-05 -1.315088474e-15)
(7.955227878e-17 -2.066729906e-05 -1.132841323e-15)
(7.955284166e-17 -1.825675288e-05 -9.369190587e-16)
(7.955343619e-17 -1.575934294e-05 -7.358024149e-16)
(7.95539971e-17 -1.32112547e-05 -5.378424887e-16)
(7.955444863e-17 -1.066034042e-05 -3.509894179e-16)
(7.955470312e-17 -8.176007767e-06 -1.823238839e-16)
(7.955468449e-17 -5.847657472e-06 -3.785673024e-17)
(7.955432578e-17 -3.789519691e-06 7.71138436e-17)
(7.955358915e-17 -2.140801431e-06 1.594803115e-16)
(7.955245547e-17 -1.067319497e-06 2.058516627e-16)
(7.955094535e-17 -7.600426801e-07 2.155964956e-16)
(7.954909087e-17 -1.433294742e-06 1.865785673e-16)
(7.954697165e-17 -3.319399708e-06 1.220168565e-16)
(7.95446972e-17 -6.661144625e-06 1.889212588e-17)
(7.954245859e-17 -1.170054234e-05 -1.125526971e-16)
(7.954058389e-17 -1.866370639e-05 -2.816138791e-16)
(7.953956437e-17 -2.774116883e-05 -4.615785087e-16)
(7.953838175e-17 -3.906332643e-05 -6.258808602e-16)
(7.954175737e-17 -5.267072548e-05 -8.342818638e-16)
(7.954965947e-17 -6.847909847e-05 -1.056869513e-15)
(7.956417264e-17 -8.623948588e-05 -1.260391131e-15)
(7.958752257e-17 -0.0001054939619 -1.44429105e-15)
(7.962168111e-17 -0.0001255281489 -1.585448818e-15)
(7.966754874e-17 -0.0001453220793 -1.671304766e-15)
(7.972376325e-17 -0.0001635017816 -1.680373539e-15)
(7.978527265e-17 -0.0001782946031 -1.594614227e-15)
(7.984176553e-17 -0.0001874919445 -1.392979213e-15)
(7.987667186e-17 -0.0001884245674 -1.056689857e-15)
(7.986743884e-17 -0.0001779549874 -5.678097506e-16)
(7.978853525e-17 -0.0001524952423 8.771645682e-17)
(7.961886943e-17 -0.0001080536751 9.196894655e-16)
(7.935576052e-17 -4.03245164e-05 1.931315171e-15)
(7.903762473e-17 5.518215547e-05 3.11777107e-15)
(7.87764185e-17 0.0001829441013 4.464746487e-15)
(7.880044695e-17 0.0003471865671 5.947235272e-15)
(7.950268842e-17 0.0005515403646 7.528741617e-15)
(8.148945e-17 0.0007986774299 9.161483952e-15)
(8.561029776e-17 0.001089778874 1.078743046e-14)
(9.295468119e-17 0.001424071062 1.234074445e-14)
(1.047746671e-16 0.001798037866 1.375173312e-14)
(1.223155824e-16 0.002204975148 1.49525974e-14)
(1.465010984e-16 0.002633799234 1.588506626e-14)
(1.774844708e-16 0.003068964947 1.651001872e-14)
(2.140515355e-16 0.003488448242 1.681878886e-14)
(2.529997841e-16 0.003864951534 1.684588911e-14)
(2.88643587e-16 0.004161804856 1.668213438e-14)
(3.128115366e-16 0.004337918484 1.648765542e-14)
)
;

boundaryField
{
    left
    {
        type            momentBeamRotationNR;
        value           uniform (7.953012191e-17 -4.422082381e-05 -1.464815884e-15);
        momentSeries    
{
        file            "$FOAM_CASE/constant/beam/timeVsMoment";
        outOfBounds     clamp;
}
        moment          uniform (0 0 0);
    }
    right
    {
        type            momentBeamRotationNR;
        value           uniform (3.128115366e-16 0.004337918484 1.648765542e-14);
        momentSeries    
{
        file            "$FOAM_CASE/constant/beam/timeVsMoment";
        outOfBounds     clamp;
}
        moment          uniform (0 0 0);
    }
    beam
    {
        type            empty;
    }
}


// ************************************************************************* //
