/*--------------------------------*- C++ -*----------------------------------*\
| =========                 |                                                 |
| \\      /  F ield         | OpenFOAM: The Open Source CFD Toolbox           |
|  \\    /   O peration     | Version:  2312                                  |
|   \\  /    A nd           | Website:  www.openfoam.com                      |
|    \\/     M anipulation  |                                                 |
\*---------------------------------------------------------------------------*/
FoamFile
{
    version     2.0;
    format      ascii;
    arch        "LSB;label=32;scalar=64";
    class       volVectorField;
    location    "0.03/beam";
    object      W;
}
// * * * * * * * * * * * * * * * * * * * * * * * * * * * * * * * * * * * * * //

dimensions      [0 1 0 0 0 0 0];

internalField   nonuniform List<vector> 
60
(
(1.633711175e-08 9.680565806e-16 3.11178241e-08)
(4.901405603e-08 9.035387117e-16 9.294648381e-08)
(8.169564583e-08 8.37232044e-16 1.534999659e-07)
(1.143824548e-07 7.68284258e-16 2.117431757e-07)
(1.470758311e-07 6.962885314e-16 2.663735927e-07)
(1.797766687e-07 6.213431863e-16 3.157277956e-07)
(2.124861133e-07 5.44041396e-16 3.576916779e-07)
(2.452051523e-07 4.654070158e-16 3.896314442e-07)
(2.779348471e-07 3.867835896e-16 4.083650822e-07)
(3.106761958e-07 3.096992577e-16 4.101433363e-07)
(3.434302067e-07 2.357034743e-16 3.906790239e-07)
(3.761978508e-07 1.662827275e-16 3.452397191e-07)
(4.089800832e-07 1.027287601e-16 2.687860792e-07)
(4.417778252e-07 4.606122357e-17 1.56213131e-07)
(4.745919702e-07 -3.026298652e-18 2.646341956e-09)
(5.074233782e-07 -4.419259823e-17 -1.961266415e-07)
(5.402728818e-07 -7.744314088e-17 -4.431387013e-07)
(5.731412911e-07 -1.031075075e-16 -7.395847281e-07)
(6.060294076e-07 -1.217949692e-16 -1.084050738e-06)
(6.38938041e-07 -1.343339884e-16 -1.471611783e-06)
(6.718680299e-07 -1.417110541e-16 -1.892835216e-06)
(7.0482026e-07 -1.449929737e-16 -2.332682465e-06)
(7.377938097e-07 -1.452510794e-16 -2.769330325e-06)
(7.707933752e-07 -1.435026632e-16 -3.173139569e-06)
(8.038180421e-07 -1.406362398e-16 -3.505404809e-06)
(8.368685714e-07 -1.373549956e-16 -3.717593299e-06)
(8.699453113e-07 -1.341147794e-16 -3.750598567e-06)
(9.030477908e-07 -1.31081886e-16 -3.534661628e-06)
(9.361742047e-07 -1.280973358e-16 -2.989546356e-06)
(9.693207067e-07 -1.246455152e-16 -2.025940087e-06)
(1.002480643e-06 -1.186679668e-16 -5.472331509e-07)
(1.035643762e-06 -1.089149981e-16 1.546737623e-06)
(1.068795645e-06 -9.496437395e-17 4.355449362e-06)
(1.101917624e-06 -7.492607917e-17 7.970683629e-06)
(1.134987535e-06 -4.668601668e-17 1.246894063e-05)
(1.16798181e-06 -8.029151299e-18 1.790037664e-05)
(1.200879158e-06 4.321480802e-17 2.427717608e-05)
(1.233666256e-06 1.089571187e-16 3.155811204e-05)
(1.266344949e-06 1.906059794e-16 3.963269876e-05)
(1.298940362e-06 2.887416299e-16 4.830197419e-05)
(1.331507513e-06 4.027618795e-16 5.7259249e-05)
(1.364133107e-06 5.30443769e-16 6.606917813e-05)
(1.396926874e-06 6.674881245e-16 7.414743471e-05)
(1.42999473e-06 8.070112631e-16 8.074224794e-05)
(1.463384711e-06 9.390496601e-16 8.491745976e-05)
(1.496994416e-06 1.050083006e-15 8.554330428e-05)
(1.530430852e-06 1.122613612e-15 8.128983233e-05)
(1.562815792e-06 1.134917393e-15 7.063666032e-05)
(1.592537058e-06 1.060911677e-15 5.188649284e-05)
(1.616963432e-06 8.704159227e-16 2.320624534e-05)
(1.632147971e-06 5.296259952e-16 -1.732719297e-05)
(1.632595041e-06 2.282202681e-18 -7.164032506e-05)
(1.611149733e-06 -7.488403869e-16 -0.0001415715035)
(1.559173363e-06 -1.759387554e-15 -0.0002287249668)
(1.467074237e-06 -3.060450807e-15 -0.000334320472)
(1.325430697e-06 -4.674182614e-15 -0.000458977587)
(1.126683603e-06 -6.608897101e-15 -0.0006024969581)
(8.675704152e-07 -8.852529671e-15 -0.0007635720736)
(5.519545622e-07 -1.136556473e-14 -0.0009394998489)
(1.938064467e-07 -1.407239725e-14 -0.001125829879)
)
;

boundaryField
{
    left
    {
        type            fixedValue;
        value           uniform (0 0 0);
    }
    right
    {
        type            fixedValue;
        value           uniform (6.530224361e-09 -1.64624856e-14 -0.001220932365);
    }
    beam
    {
        type            empty;
    }
}


// ************************************************************************* //
