/*--------------------------------*- C++ -*----------------------------------*\
| =========                 |                                                 |
| \\      /  F ield         | foam-extend: Open Source CFD                    |
|  \\    /   O peration     | Version:     4.1                                |
|   \\  /    A nd           | Web:         http://www.foam-extend.org         |
|    \\/     M anipulation  |                                                 |
\*---------------------------------------------------------------------------*/
FoamFile
{
    version     2.0;
    format      ascii;
    class       pointVectorField;
    location    "0";
    object      pointW;
}
// * * * * * * * * * * * * * * * * * * * * * * * * * * * * * * * * * * * * * //

dimensions      [0 1 0 0 0 0 0];

internalField   nonuniform List<vector> 
6464
(
(-6.05256e-19 6.1939e-19 0)
(0.0019509 0.0019509 0)
(0.00382683 0.00382683 0)
(0.0055557 0.0055557 0)
(0.00707107 0.00707107 0)
(0.0083147 0.0083147 0)
(0.0092388 0.0092388 0)
(0.00980785 0.00980785 0)
(0.01 0.01 0)
(0.00980785 0.00980785 0)
(0.0092388 0.0092388 0)
(0.0083147 0.0083147 0)
(0.00707107 0.00707107 0)
(0.0055557 0.0055557 0)
(0.00382683 0.00382683 0)
(0.0019509 0.0019509 0)
(1.84404e-18 6.19394e-19 0)
(-0.0019509 -0.0019509 0)
(-0.00382683 -0.00382683 0)
(-0.0055557 -0.0055557 0)
(-0.00707107 -0.00707107 0)
(-0.0083147 -0.0083147 0)
(-0.0092388 -0.0092388 0)
(-0.00980785 -0.00980785 0)
(-0.01 -0.01 0)
(-0.00980785 -0.00980785 0)
(-0.0092388 -0.0092388 0)
(-0.0083147 -0.0083147 0)
(-0.00707107 -0.00707107 0)
(-0.0055557 -0.0055557 0)
(-0.00382683 -0.00382683 0)
(-0.0019509 -0.0019509 0)
(-0.0309216 0.0314098 0)
(-0.0289717 0.0332995 0)
(-0.0270966 0.0351165 0)
(-0.0253686 0.036791 0)
(-0.023854 0.0382588 0)
(-0.022611 0.0394634 0)
(-0.0216873 0.0403584 0)
(-0.0211186 0.0409096 0)
(-0.0209265 0.0410957 0)
(-0.0211186 0.0409096 0)
(-0.0216873 0.0403584 0)
(-0.022611 0.0394634 0)
(-0.023854 0.0382588 0)
(-0.0253686 0.036791 0)
(-0.0270966 0.0351165 0)
(-0.0289717 0.0332995 0)
(-0.0309216 0.0314098 0)
(-0.0328715 0.0295202 0)
(-0.0347465 0.0277032 0)
(-0.0364745 0.0260286 0)
(-0.0379892 0.0245609 0)
(-0.0392322 0.0233563 0)
(-0.0401558 0.0224612 0)
(-0.0407246 0.02191 0)
(-0.0409167 0.0217239 0)
(-0.0407246 0.02191 0)
(-0.0401558 0.0224612 0)
(-0.0392322 0.0233563 0)
(-0.0379892 0.0245609 0)
(-0.0364745 0.0260286 0)
(-0.0347465 0.0277032 0)
(-0.0328715 0.0295202 0)
(-0.0608568 0.0627887 0)
(-0.0589098 0.0646171 0)
(-0.0570376 0.0663752 0)
(-0.0553121 0.0679955 0)
(-0.0537997 0.0694158 0)
(-0.0525586 0.0705813 0)
(-0.0516363 0.0714474 0)
(-0.0510683 0.0719807 0)
(-0.0508766 0.0721608 0)
(-0.0510683 0.0719807 0)
(-0.0516363 0.0714474 0)
(-0.0525586 0.0705813 0)
(-0.0537997 0.0694158 0)
(-0.0553121 0.0679955 0)
(-0.0570376 0.0663752 0)
(-0.0589098 0.0646171 0)
(-0.0608568 0.0627887 0)
(-0.0628039 0.0609603 0)
(-0.0646761 0.0592021 0)
(-0.0664016 0.0575818 0)
(-0.067914 0.0561616 0)
(-0.0691551 0.054996 0)
(-0.0700774 0.05413 0)
(-0.0706453 0.0535966 0)
(-0.0708371 0.0534166 0)
(-0.0706453 0.0535966 0)
(-0.0700774 0.05413 0)
(-0.0691551 0.054996 0)
(-0.067914 0.0561616 0)
(-0.0664016 0.0575818 0)
(-0.0646761 0.0592021 0)
(-0.0628039 0.0609603 0)
(-0.0898072 0.0941055 0)
(-0.087865 0.0958729 0)
(-0.0859974 0.0975723 0)
(-0.0842762 0.0991384 0)
(-0.0827675 0.100511 0)
(-0.0815294 0.101638 0)
(-0.0806094 0.102475 0)
(-0.0800429 0.10299 0)
(-0.0798516 0.103164 0)
(-0.0800429 0.10299 0)
(-0.0806094 0.102475 0)
(-0.0815294 0.101638 0)
(-0.0827675 0.100511 0)
(-0.0842762 0.0991384 0)
(-0.0859974 0.0975723 0)
(-0.087865 0.0958729 0)
(-0.0898072 0.0941055 0)
(-0.0917495 0.0923382 0)
(-0.0936171 0.0906388 0)
(-0.0953383 0.0890727 0)
(-0.0968469 0.0876999 0)
(-0.098085 0.0865733 0)
(-0.099005 0.0857362 0)
(-0.0995716 0.0852207 0)
(-0.0997628 0.0850466 0)
(-0.0995716 0.0852207 0)
(-0.099005 0.0857362 0)
(-0.098085 0.0865733 0)
(-0.0968469 0.0876999 0)
(-0.0953383 0.0890727 0)
(-0.0936171 0.0906388 0)
(-0.0917495 0.0923382 0)
(-0.117775 0.12533 0)
(-0.11584 0.127036 0)
(-0.113979 0.128677 0)
(-0.112263 0.130189 0)
(-0.11076 0.131514 0)
(-0.109526 0.132602 0)
(-0.108609 0.13341 0)
(-0.108045 0.133908 0)
(-0.107854 0.134076 0)
(-0.108045 0.133908 0)
(-0.108609 0.13341 0)
(-0.109526 0.132602 0)
(-0.11076 0.131514 0)
(-0.112263 0.130189 0)
(-0.113979 0.128677 0)
(-0.11584 0.127036 0)
(-0.117775 0.12533 0)
(-0.119711 0.123623 0)
(-0.121572 0.121982 0)
(-0.123287 0.12047 0)
(-0.12479 0.119145 0)
(-0.126024 0.118057 0)
(-0.126941 0.117249 0)
(-0.127506 0.116751 0)
(-0.127696 0.116583 0)
(-0.127506 0.116751 0)
(-0.126941 0.117249 0)
(-0.126024 0.118057 0)
(-0.12479 0.119145 0)
(-0.123287 0.12047 0)
(-0.121572 0.121982 0)
(-0.119711 0.123623 0)
(-0.144764 0.15643 0)
(-0.142837 0.158076 0)
(-0.140984 0.159658 0)
(-0.139277 0.161117 0)
(-0.13778 0.162395 0)
(-0.136552 0.163444 0)
(-0.135639 0.164223 0)
(-0.135077 0.164703 0)
(-0.134887 0.164866 0)
(-0.135077 0.164703 0)
(-0.135639 0.164223 0)
(-0.136552 0.163444 0)
(-0.13778 0.162395 0)
(-0.139277 0.161117 0)
(-0.140984 0.159658 0)
(-0.142837 0.158076 0)
(-0.144764 0.15643 0)
(-0.146691 0.154784 0)
(-0.148544 0.153202 0)
(-0.150251 0.151743 0)
(-0.151748 0.150465 0)
(-0.152976 0.149416 0)
(-0.153889 0.148636 0)
(-0.154451 0.148156 0)
(-0.154641 0.147994 0)
(-0.154451 0.148156 0)
(-0.153889 0.148636 0)
(-0.152976 0.149416 0)
(-0.151748 0.150465 0)
(-0.150251 0.151743 0)
(-0.148544 0.153202 0)
(-0.146691 0.154784 0)
(-0.170778 0.187376 0)
(-0.168862 0.188961 0)
(-0.167019 0.190486 0)
(-0.165321 0.191891 0)
(-0.163832 0.193122 0)
(-0.162611 0.194133 0)
(-0.161703 0.194884 0)
(-0.161144 0.195346 0)
(-0.160955 0.195502 0)
(-0.161144 0.195346 0)
(-0.161703 0.194884 0)
(-0.162611 0.194133 0)
(-0.163832 0.193122 0)
(-0.165321 0.191891 0)
(-0.167019 0.190486 0)
(-0.168862 0.188961 0)
(-0.170778 0.187376 0)
(-0.172695 0.185791 0)
(-0.174537 0.184266 0)
(-0.176236 0.182861 0)
(-0.177724 0.18163 0)
(-0.178946 0.180619 0)
(-0.179853 0.179868 0)
(-0.180412 0.179406 0)
(-0.180601 0.17925 0)
(-0.180412 0.179406 0)
(-0.179853 0.179868 0)
(-0.178946 0.180619 0)
(-0.177724 0.18163 0)
(-0.176236 0.182861 0)
(-0.174537 0.184266 0)
(-0.172695 0.185791 0)
(-0.195823 0.218137 0)
(-0.193919 0.219662 0)
(-0.192089 0.221129 0)
(-0.190401 0.222481 0)
(-0.188922 0.223666 0)
(-0.187709 0.224638 0)
(-0.186807 0.22536 0)
(-0.186252 0.225805 0)
(-0.186064 0.225956 0)
(-0.186252 0.225805 0)
(-0.186807 0.22536 0)
(-0.187709 0.224638 0)
(-0.188922 0.223666 0)
(-0.190401 0.222481 0)
(-0.192089 0.221129 0)
(-0.193919 0.219662 0)
(-0.195823 0.218137 0)
(-0.197727 0.216612 0)
(-0.199558 0.215145 0)
(-0.201245 0.213793 0)
(-0.202724 0.212608 0)
(-0.203938 0.211636 0)
(-0.204839 0.210913 0)
(-0.205395 0.210469 0)
(-0.205582 0.210318 0)
(-0.205395 0.210469 0)
(-0.204839 0.210913 0)
(-0.203938 0.211636 0)
(-0.202724 0.212608 0)
(-0.201245 0.213793 0)
(-0.199558 0.215145 0)
(-0.197727 0.216612 0)
(-0.219905 0.248683 0)
(-0.218015 0.250148 0)
(-0.216198 0.251558 0)
(-0.214524 0.252857 0)
(-0.213056 0.253995 0)
(-0.211852 0.25493 0)
(-0.210956 0.255624 0)
(-0.210405 0.256052 0)
(-0.210219 0.256196 0)
(-0.210405 0.256052 0)
(-0.210956 0.255624 0)
(-0.211852 0.25493 0)
(-0.213056 0.253995 0)
(-0.214524 0.252857 0)
(-0.216198 0.251558 0)
(-0.218015 0.250148 0)
(-0.219905 0.248683 0)
(-0.221795 0.247217 0)
(-0.223612 0.245808 0)
(-0.225286 0.244509 0)
(-0.226754 0.24337 0)
(-0.227958 0.242436 0)
(-0.228854 0.241741 0)
(-0.229405 0.241314 0)
(-0.229591 0.24117 0)
(-0.229405 0.241314 0)
(-0.228854 0.241741 0)
(-0.227958 0.242436 0)
(-0.226754 0.24337 0)
(-0.225286 0.244509 0)
(-0.223612 0.245808 0)
(-0.221795 0.247217 0)
(-0.243031 0.278983 0)
(-0.241158 0.28039 0)
(-0.239356 0.281742 0)
(-0.237696 0.282989 0)
(-0.236241 0.284081 0)
(-0.235046 0.284978 0)
(-0.234159 0.285644 0)
(-0.233613 0.286055 0)
(-0.233428 0.286193 0)
(-0.233613 0.286055 0)
(-0.234159 0.285644 0)
(-0.235046 0.284978 0)
(-0.236241 0.284081 0)
(-0.237696 0.282989 0)
(-0.239356 0.281742 0)
(-0.241158 0.28039 0)
(-0.243031 0.278983 0)
(-0.244904 0.277576 0)
(-0.246706 0.276224 0)
(-0.248366 0.274977 0)
(-0.249821 0.273885 0)
(-0.251016 0.272988 0)
(-0.251903 0.272322 0)
(-0.252449 0.271911 0)
(-0.252634 0.271773 0)
(-0.252449 0.271911 0)
(-0.251903 0.272322 0)
(-0.251016 0.272988 0)
(-0.249821 0.273885 0)
(-0.248366 0.274977 0)
(-0.246706 0.276224 0)
(-0.244904 0.277576 0)
(-0.265209 0.309008 0)
(-0.263354 0.310356 0)
(-0.26157 0.311652 0)
(-0.259926 0.312847 0)
(-0.258484 0.313894 0)
(-0.257302 0.314754 0)
(-0.256423 0.315392 0)
(-0.255882 0.315785 0)
(-0.255699 0.315918 0)
(-0.255882 0.315785 0)
(-0.256423 0.315392 0)
(-0.257302 0.314754 0)
(-0.258484 0.313894 0)
(-0.259926 0.312847 0)
(-0.26157 0.311652 0)
(-0.263354 0.310356 0)
(-0.265209 0.309008 0)
(-0.267065 0.30766 0)
(-0.268849 0.306364 0)
(-0.270493 0.305169 0)
(-0.271934 0.304122 0)
(-0.273117 0.303263 0)
(-0.273996 0.302624 0)
(-0.274537 0.302231 0)
(-0.27472 0.302098 0)
(-0.274537 0.302231 0)
(-0.273996 0.302624 0)
(-0.273117 0.303263 0)
(-0.271934 0.304122 0)
(-0.270493 0.305169 0)
(-0.268849 0.306364 0)
(-0.267065 0.30766 0)
(-0.286449 0.338728 0)
(-0.284614 0.340018 0)
(-0.282849 0.341259 0)
(-0.281222 0.342402 0)
(-0.279796 0.343404 0)
(-0.278626 0.344227 0)
(-0.277757 0.344838 0)
(-0.277221 0.345214 0)
(-0.27704 0.345341 0)
(-0.277221 0.345214 0)
(-0.277757 0.344838 0)
(-0.278626 0.344227 0)
(-0.279796 0.343404 0)
(-0.281222 0.342402 0)
(-0.282849 0.341259 0)
(-0.284614 0.340018 0)
(-0.286449 0.338728 0)
(-0.288285 0.337438 0)
(-0.29005 0.336198 0)
(-0.291676 0.335055 0)
(-0.293102 0.334052 0)
(-0.294272 0.33323 0)
(-0.295142 0.332619 0)
(-0.295677 0.332243 0)
(-0.295858 0.332116 0)
(-0.295677 0.332243 0)
(-0.295142 0.332619 0)
(-0.294272 0.33323 0)
(-0.293102 0.334052 0)
(-0.291676 0.335055 0)
(-0.29005 0.336198 0)
(-0.288285 0.337438 0)
(-0.306761 0.368114 0)
(-0.304947 0.369347 0)
(-0.303202 0.370532 0)
(-0.301595 0.371625 0)
(-0.300186 0.372582 0)
(-0.29903 0.373368 0)
(-0.298171 0.373952 0)
(-0.297641 0.374312 0)
(-0.297463 0.374433 0)
(-0.297641 0.374312 0)
(-0.298171 0.373952 0)
(-0.29903 0.373368 0)
(-0.300186 0.372582 0)
(-0.301595 0.371625 0)
(-0.303202 0.370532 0)
(-0.304947 0.369347 0)
(-0.306761 0.368114 0)
(-0.308574 0.366881 0)
(-0.310319 0.365696 0)
(-0.311926 0.364604 0)
(-0.313335 0.363646 0)
(-0.314491 0.36286 0)
(-0.315351 0.362276 0)
(-0.31588 0.361917 0)
(-0.316058 0.361795 0)
(-0.31588 0.361917 0)
(-0.315351 0.362276 0)
(-0.314491 0.36286 0)
(-0.313335 0.363646 0)
(-0.311926 0.364604 0)
(-0.310319 0.365696 0)
(-0.308574 0.366881 0)
(-0.326154 0.397137 0)
(-0.324364 0.398313 0)
(-0.322642 0.399444 0)
(-0.321056 0.400486 0)
(-0.319665 0.4014 0)
(-0.318524 0.402149 0)
(-0.317675 0.402707 0)
(-0.317153 0.40305 0)
(-0.316977 0.403165 0)
(-0.317153 0.40305 0)
(-0.317675 0.402707 0)
(-0.318524 0.402149 0)
(-0.319665 0.4014 0)
(-0.321056 0.400486 0)
(-0.322642 0.399444 0)
(-0.324364 0.398313 0)
(-0.326154 0.397137 0)
(-0.327945 0.395961 0)
(-0.329667 0.39483 0)
(-0.331253 0.393788 0)
(-0.332644 0.392874 0)
(-0.333785 0.392124 0)
(-0.334633 0.391567 0)
(-0.335156 0.391224 0)
(-0.335332 0.391108 0)
(-0.335156 0.391224 0)
(-0.334633 0.391567 0)
(-0.333785 0.392124 0)
(-0.332644 0.392874 0)
(-0.331253 0.393788 0)
(-0.329667 0.39483 0)
(-0.327945 0.395961 0)
(-0.344643 0.425768 0)
(-0.342877 0.426888 0)
(-0.34118 0.427965 0)
(-0.339616 0.428958 0)
(-0.338244 0.429828 0)
(-0.337119 0.430542 0)
(-0.336283 0.431073 0)
(-0.335768 0.4314 0)
(-0.335594 0.43151 0)
(-0.335768 0.4314 0)
(-0.336283 0.431073 0)
(-0.337119 0.430542 0)
(-0.338244 0.429828 0)
(-0.339616 0.428958 0)
(-0.34118 0.427965 0)
(-0.342877 0.426888 0)
(-0.344643 0.425768 0)
(-0.346408 0.424647 0)
(-0.348105 0.42357 0)
(-0.34967 0.422577 0)
(-0.351041 0.421707 0)
(-0.352166 0.420993 0)
(-0.353002 0.420462 0)
(-0.353517 0.420136 0)
(-0.353691 0.420025 0)
(-0.353517 0.420136 0)
(-0.353002 0.420462 0)
(-0.352166 0.420993 0)
(-0.351041 0.421707 0)
(-0.34967 0.422577 0)
(-0.348105 0.42357 0)
(-0.346408 0.424647 0)
(-0.362238 0.453978 0)
(-0.3605 0.455043 0)
(-0.358828 0.456068 0)
(-0.357288 0.457012 0)
(-0.355937 0.457839 0)
(-0.354829 0.458518 0)
(-0.354006 0.459023 0)
(-0.353499 0.459333 0)
(-0.353328 0.459438 0)
(-0.353499 0.459333 0)
(-0.354006 0.459023 0)
(-0.354829 0.458518 0)
(-0.355937 0.457839 0)
(-0.357288 0.457012 0)
(-0.358828 0.456068 0)
(-0.3605 0.455043 0)
(-0.362238 0.453978 0)
(-0.363976 0.452913 0)
(-0.365648 0.451889 0)
(-0.367188 0.450945 0)
(-0.368538 0.450117 0)
(-0.369646 0.449438 0)
(-0.37047 0.448934 0)
(-0.370977 0.448623 0)
(-0.371148 0.448518 0)
(-0.370977 0.448623 0)
(-0.37047 0.448934 0)
(-0.369646 0.449438 0)
(-0.368538 0.450117 0)
(-0.367188 0.450945 0)
(-0.365648 0.451889 0)
(-0.363976 0.452913 0)
(-0.378954 0.481741 0)
(-0.377244 0.482752 0)
(-0.3756 0.483724 0)
(-0.374085 0.48462 0)
(-0.372757 0.485405 0)
(-0.371668 0.48605 0)
(-0.370858 0.486529 0)
(-0.370359 0.486824 0)
(-0.370191 0.486923 0)
(-0.370359 0.486824 0)
(-0.370858 0.486529 0)
(-0.371668 0.48605 0)
(-0.372757 0.485405 0)
(-0.374085 0.48462 0)
(-0.3756 0.483724 0)
(-0.377244 0.482752 0)
(-0.378954 0.481741 0)
(-0.380663 0.48073 0)
(-0.382307 0.479757 0)
(-0.383822 0.478861 0)
(-0.38515 0.478076 0)
(-0.38624 0.477432 0)
(-0.38705 0.476953 0)
(-0.387549 0.476658 0)
(-0.387717 0.476558 0)
(-0.387549 0.476658 0)
(-0.38705 0.476953 0)
(-0.38624 0.477432 0)
(-0.38515 0.478076 0)
(-0.383822 0.478861 0)
(-0.382307 0.479757 0)
(-0.380663 0.48073 0)
(-0.394805 0.509028 0)
(-0.393126 0.509986 0)
(-0.391511 0.510907 0)
(-0.390023 0.511756 0)
(-0.388719 0.5125 0)
(-0.387648 0.51311 0)
(-0.386853 0.513564 0)
(-0.386363 0.513843 0)
(-0.386198 0.513938 0)
(-0.386363 0.513843 0)
(-0.386853 0.513564 0)
(-0.387648 0.51311 0)
(-0.388719 0.5125 0)
(-0.390023 0.511756 0)
(-0.391511 0.510907 0)
(-0.393126 0.509986 0)
(-0.394805 0.509028 0)
(-0.396484 0.50807 0)
(-0.398099 0.507149 0)
(-0.399587 0.5063 0)
(-0.400891 0.505556 0)
(-0.401962 0.504946 0)
(-0.402757 0.504492 0)
(-0.403247 0.504212 0)
(-0.403413 0.504118 0)
(-0.403247 0.504212 0)
(-0.402757 0.504492 0)
(-0.401962 0.504946 0)
(-0.400891 0.505556 0)
(-0.399587 0.5063 0)
(-0.398099 0.507149 0)
(-0.396484 0.50807 0)
(-0.409807 0.535813 0)
(-0.40816 0.536718 0)
(-0.406576 0.537589 0)
(-0.405116 0.538392 0)
(-0.403836 0.539095 0)
(-0.402786 0.539672 0)
(-0.402006 0.540101 0)
(-0.401526 0.540365 0)
(-0.401363 0.540455 0)
(-0.401526 0.540365 0)
(-0.402006 0.540101 0)
(-0.402786 0.539672 0)
(-0.403836 0.539095 0)
(-0.405116 0.538392 0)
(-0.406576 0.537589 0)
(-0.40816 0.536718 0)
(-0.409807 0.535813 0)
(-0.411454 0.534907 0)
(-0.413038 0.534036 0)
(-0.414498 0.533234 0)
(-0.415777 0.53253 0)
(-0.416827 0.531953 0)
(-0.417608 0.531524 0)
(-0.418088 0.53126 0)
(-0.41825 0.531171 0)
(-0.418088 0.53126 0)
(-0.417608 0.531524 0)
(-0.416827 0.531953 0)
(-0.415777 0.53253 0)
(-0.414498 0.533234 0)
(-0.413038 0.534036 0)
(-0.411454 0.534907 0)
(-0.423975 0.562069 0)
(-0.422362 0.562923 0)
(-0.42081 0.563745 0)
(-0.41938 0.564502 0)
(-0.418127 0.565165 0)
(-0.417098 0.56571 0)
(-0.416334 0.566115 0)
(-0.415863 0.566364 0)
(-0.415705 0.566448 0)
(-0.415863 0.566364 0)
(-0.416334 0.566115 0)
(-0.417098 0.56571 0)
(-0.418127 0.565165 0)
(-0.41938 0.564502 0)
(-0.42081 0.563745 0)
(-0.422362 0.562923 0)
(-0.423975 0.562069 0)
(-0.425589 0.561214 0)
(-0.427141 0.560393 0)
(-0.428571 0.559636 0)
(-0.429824 0.558972 0)
(-0.430852 0.558428 0)
(-0.431617 0.558023 0)
(-0.432087 0.557774 0)
(-0.432246 0.55769 0)
(-0.432087 0.557774 0)
(-0.431617 0.558023 0)
(-0.430852 0.558428 0)
(-0.429824 0.558972 0)
(-0.428571 0.559636 0)
(-0.427141 0.560393 0)
(-0.425589 0.561214 0)
(-0.437328 0.58777 0)
(-0.43575 0.588574 0)
(-0.434232 0.589348 0)
(-0.432833 0.59006 0)
(-0.431607 0.590685 0)
(-0.430601 0.591198 0)
(-0.429853 0.591579 0)
(-0.429393 0.591813 0)
(-0.429238 0.591893 0)
(-0.429393 0.591813 0)
(-0.429853 0.591579 0)
(-0.430601 0.591198 0)
(-0.431607 0.590685 0)
(-0.432833 0.59006 0)
(-0.434232 0.589348 0)
(-0.43575 0.588574 0)
(-0.437328 0.58777 0)
(-0.438906 0.586966 0)
(-0.440424 0.586193 0)
(-0.441823 0.58548 0)
(-0.443049 0.584855 0)
(-0.444055 0.584343 0)
(-0.444802 0.583962 0)
(-0.445263 0.583727 0)
(-0.445418 0.583648 0)
(-0.445263 0.583727 0)
(-0.444802 0.583962 0)
(-0.444055 0.584343 0)
(-0.443049 0.584855 0)
(-0.441823 0.58548 0)
(-0.440424 0.586193 0)
(-0.438906 0.586966 0)
(-0.449882 0.612892 0)
(-0.44834 0.613647 0)
(-0.446858 0.614373 0)
(-0.445492 0.615042 0)
(-0.444295 0.615629 0)
(-0.443312 0.61611 0)
(-0.442582 0.616468 0)
(-0.442132 0.616688 0)
(-0.44198 0.616763 0)
(-0.442132 0.616688 0)
(-0.442582 0.616468 0)
(-0.443312 0.61611 0)
(-0.444295 0.615629 0)
(-0.445492 0.615042 0)
(-0.446858 0.614373 0)
(-0.44834 0.613647 0)
(-0.449882 0.612892 0)
(-0.451423 0.612136 0)
(-0.452906 0.61141 0)
(-0.454272 0.610741 0)
(-0.455469 0.610154 0)
(-0.456452 0.609673 0)
(-0.457182 0.609315 0)
(-0.457632 0.609095 0)
(-0.457784 0.609021 0)
(-0.457632 0.609095 0)
(-0.457182 0.609315 0)
(-0.456452 0.609673 0)
(-0.455469 0.610154 0)
(-0.454272 0.610741 0)
(-0.452906 0.61141 0)
(-0.451423 0.612136 0)
(-0.461656 0.637408 0)
(-0.460153 0.638116 0)
(-0.458708 0.638796 0)
(-0.457375 0.639423 0)
(-0.456208 0.639972 0)
(-0.45525 0.640423 0)
(-0.454537 0.640758 0)
(-0.454099 0.640965 0)
(-0.453951 0.641034 0)
(-0.454099 0.640965 0)
(-0.454537 0.640758 0)
(-0.45525 0.640423 0)
(-0.456208 0.639972 0)
(-0.457375 0.639423 0)
(-0.458708 0.638796 0)
(-0.460153 0.638116 0)
(-0.461656 0.637408 0)
(-0.463159 0.636701 0)
(-0.464605 0.636021 0)
(-0.465937 0.635394 0)
(-0.467105 0.634844 0)
(-0.468063 0.634393 0)
(-0.468775 0.634058 0)
(-0.469213 0.633852 0)
(-0.469361 0.633782 0)
(-0.469213 0.633852 0)
(-0.468775 0.634058 0)
(-0.468063 0.634393 0)
(-0.467105 0.634844 0)
(-0.465937 0.635394 0)
(-0.464605 0.636021 0)
(-0.463159 0.636701 0)
(-0.47267 0.661296 0)
(-0.471207 0.661957 0)
(-0.4698 0.662592 0)
(-0.468503 0.663178 0)
(-0.467366 0.663691 0)
(-0.466433 0.664112 0)
(-0.46574 0.664425 0)
(-0.465313 0.664618 0)
(-0.465169 0.664683 0)
(-0.465313 0.664618 0)
(-0.46574 0.664425 0)
(-0.466433 0.664112 0)
(-0.467366 0.663691 0)
(-0.468503 0.663178 0)
(-0.4698 0.662592 0)
(-0.471207 0.661957 0)
(-0.47267 0.661296 0)
(-0.474134 0.660635 0)
(-0.475541 0.66 0)
(-0.476838 0.659414 0)
(-0.477974 0.658901 0)
(-0.478907 0.65848 0)
(-0.4796 0.658167 0)
(-0.480027 0.657974 0)
(-0.480171 0.657909 0)
(-0.480027 0.657974 0)
(-0.4796 0.658167 0)
(-0.478907 0.65848 0)
(-0.477974 0.658901 0)
(-0.476838 0.659414 0)
(-0.475541 0.66 0)
(-0.474134 0.660635 0)
(-0.482944 0.684531 0)
(-0.481522 0.685146 0)
(-0.480154 0.685738 0)
(-0.478894 0.686284 0)
(-0.477789 0.686762 0)
(-0.476883 0.687154 0)
(-0.476209 0.687445 0)
(-0.475794 0.687625 0)
(-0.475654 0.687686 0)
(-0.475794 0.687625 0)
(-0.476209 0.687445 0)
(-0.476883 0.687154 0)
(-0.477789 0.686762 0)
(-0.478894 0.686284 0)
(-0.480154 0.685738 0)
(-0.481522 0.685146 0)
(-0.482944 0.684531 0)
(-0.484366 0.683915 0)
(-0.485734 0.683324 0)
(-0.486994 0.682778 0)
(-0.488099 0.6823 0)
(-0.489005 0.681908 0)
(-0.489679 0.681616 0)
(-0.490094 0.681437 0)
(-0.490234 0.681376 0)
(-0.490094 0.681437 0)
(-0.489679 0.681616 0)
(-0.489005 0.681908 0)
(-0.488099 0.6823 0)
(-0.486994 0.682778 0)
(-0.485734 0.683324 0)
(-0.484366 0.683915 0)
(-0.492498 0.70709 0)
(-0.491119 0.707662 0)
(-0.489792 0.708211 0)
(-0.48857 0.708718 0)
(-0.487498 0.709162 0)
(-0.486619 0.709526 0)
(-0.485965 0.709797 0)
(-0.485563 0.709963 0)
(-0.485427 0.710019 0)
(-0.485563 0.709963 0)
(-0.485965 0.709797 0)
(-0.486619 0.709526 0)
(-0.487498 0.709162 0)
(-0.48857 0.708718 0)
(-0.489792 0.708211 0)
(-0.491119 0.707662 0)
(-0.492498 0.70709 0)
(-0.493878 0.706519 0)
(-0.495204 0.705969 0)
(-0.496427 0.705463 0)
(-0.497498 0.705019 0)
(-0.498378 0.704655 0)
(-0.499031 0.704384 0)
(-0.499434 0.704218 0)
(-0.499569 0.704161 0)
(-0.499434 0.704218 0)
(-0.499031 0.704384 0)
(-0.498378 0.704655 0)
(-0.497498 0.705019 0)
(-0.496427 0.705463 0)
(-0.495204 0.705969 0)
(-0.493878 0.706519 0)
(-0.501355 0.728952 0)
(-0.500019 0.729481 0)
(-0.498735 0.729989 0)
(-0.497551 0.730458 0)
(-0.496514 0.730869 0)
(-0.495663 0.731206 0)
(-0.49503 0.731456 0)
(-0.494641 0.731611 0)
(-0.494509 0.731663 0)
(-0.494641 0.731611 0)
(-0.49503 0.731456 0)
(-0.495663 0.731206 0)
(-0.496514 0.730869 0)
(-0.497551 0.730458 0)
(-0.498735 0.729989 0)
(-0.500019 0.729481 0)
(-0.501355 0.728952 0)
(-0.50269 0.728423 0)
(-0.503974 0.727915 0)
(-0.505158 0.727446 0)
(-0.506195 0.727036 0)
(-0.507047 0.726698 0)
(-0.507679 0.726448 0)
(-0.508069 0.726294 0)
(-0.5082 0.726242 0)
(-0.508069 0.726294 0)
(-0.507679 0.726448 0)
(-0.507047 0.726698 0)
(-0.506195 0.727036 0)
(-0.505158 0.727446 0)
(-0.503974 0.727915 0)
(-0.50269 0.728423 0)
(-0.509536 0.750095 0)
(-0.508245 0.750582 0)
(-0.507005 0.751051 0)
(-0.505861 0.751483 0)
(-0.504859 0.751862 0)
(-0.504037 0.752172 0)
(-0.503426 0.752403 0)
(-0.503049 0.752546 0)
(-0.502922 0.752594 0)
(-0.503049 0.752546 0)
(-0.503426 0.752403 0)
(-0.504037 0.752172 0)
(-0.504859 0.751862 0)
(-0.505861 0.751483 0)
(-0.507005 0.751051 0)
(-0.508245 0.750582 0)
(-0.509536 0.750095 0)
(-0.510826 0.749607 0)
(-0.512066 0.749138 0)
(-0.51321 0.748706 0)
(-0.514212 0.748327 0)
(-0.515034 0.748017 0)
(-0.515646 0.747786 0)
(-0.516022 0.747643 0)
(-0.516149 0.747595 0)
(-0.516022 0.747643 0)
(-0.515646 0.747786 0)
(-0.515034 0.748017 0)
(-0.514212 0.748327 0)
(-0.51321 0.748706 0)
(-0.512066 0.749138 0)
(-0.510826 0.749607 0)
(-0.517064 0.770497 0)
(-0.51582 0.770944 0)
(-0.514625 0.771375 0)
(-0.513523 0.771772 0)
(-0.512557 0.77212 0)
(-0.511764 0.772405 0)
(-0.511175 0.772617 0)
(-0.510812 0.772748 0)
(-0.51069 0.772792 0)
(-0.510812 0.772748 0)
(-0.511175 0.772617 0)
(-0.511764 0.772405 0)
(-0.512557 0.77212 0)
(-0.513523 0.771772 0)
(-0.514625 0.771375 0)
(-0.51582 0.770944 0)
(-0.517064 0.770497 0)
(-0.518308 0.770049 0)
(-0.519503 0.769618 0)
(-0.520605 0.769222 0)
(-0.521571 0.768874 0)
(-0.522364 0.768588 0)
(-0.522953 0.768376 0)
(-0.523316 0.768246 0)
(-0.523438 0.768202 0)
(-0.523316 0.768246 0)
(-0.522953 0.768376 0)
(-0.522364 0.768588 0)
(-0.521571 0.768874 0)
(-0.520605 0.769222 0)
(-0.519503 0.769618 0)
(-0.518308 0.770049 0)
(-0.523963 0.790139 0)
(-0.522768 0.790548 0)
(-0.521618 0.790942 0)
(-0.520558 0.791304 0)
(-0.519629 0.791622 0)
(-0.518867 0.791883 0)
(-0.518301 0.792077 0)
(-0.517952 0.792197 0)
(-0.517834 0.792237 0)
(-0.517952 0.792197 0)
(-0.518301 0.792077 0)
(-0.518867 0.791883 0)
(-0.519629 0.791622 0)
(-0.520558 0.791304 0)
(-0.521618 0.790942 0)
(-0.522768 0.790548 0)
(-0.523963 0.790139 0)
(-0.525159 0.789729 0)
(-0.526309 0.789335 0)
(-0.527369 0.788973 0)
(-0.528297 0.788655 0)
(-0.52906 0.788394 0)
(-0.529626 0.7882 0)
(-0.529975 0.78808 0)
(-0.530093 0.78804 0)
(-0.529975 0.78808 0)
(-0.529626 0.7882 0)
(-0.52906 0.788394 0)
(-0.528297 0.788655 0)
(-0.527369 0.788973 0)
(-0.526309 0.789335 0)
(-0.525159 0.789729 0)
(-0.530258 0.809001 0)
(-0.529111 0.809373 0)
(-0.528008 0.809732 0)
(-0.526992 0.810062 0)
(-0.526101 0.810351 0)
(-0.52537 0.810589 0)
(-0.524827 0.810765 0)
(-0.524493 0.810874 0)
(-0.52438 0.810911 0)
(-0.524493 0.810874 0)
(-0.524827 0.810765 0)
(-0.52537 0.810589 0)
(-0.526101 0.810351 0)
(-0.526992 0.810062 0)
(-0.528008 0.809732 0)
(-0.529111 0.809373 0)
(-0.530258 0.809001 0)
(-0.531404 0.808628 0)
(-0.532507 0.80827 0)
(-0.533523 0.80794 0)
(-0.534414 0.80765 0)
(-0.535145 0.807413 0)
(-0.535688 0.807236 0)
(-0.536023 0.807127 0)
(-0.536136 0.807091 0)
(-0.536023 0.807127 0)
(-0.535688 0.807236 0)
(-0.535145 0.807413 0)
(-0.534414 0.80765 0)
(-0.533523 0.80794 0)
(-0.532507 0.80827 0)
(-0.531404 0.808628 0)
(-0.535972 0.827064 0)
(-0.534876 0.827402 0)
(-0.533821 0.827726 0)
(-0.532849 0.828025 0)
(-0.531997 0.828287 0)
(-0.531298 0.828502 0)
(-0.530779 0.828662 0)
(-0.530459 0.828761 0)
(-0.530351 0.828794 0)
(-0.530459 0.828761 0)
(-0.530779 0.828662 0)
(-0.531298 0.828502 0)
(-0.531997 0.828287 0)
(-0.532849 0.828025 0)
(-0.533821 0.827726 0)
(-0.534876 0.827402 0)
(-0.535972 0.827064 0)
(-0.537069 0.826727 0)
(-0.538123 0.826403 0)
(-0.539095 0.826104 0)
(-0.539947 0.825842 0)
(-0.540646 0.825627 0)
(-0.541165 0.825467 0)
(-0.541485 0.825368 0)
(-0.541593 0.825335 0)
(-0.541485 0.825368 0)
(-0.541165 0.825467 0)
(-0.540646 0.825627 0)
(-0.539947 0.825842 0)
(-0.539095 0.826104 0)
(-0.538123 0.826403 0)
(-0.537069 0.826727 0)
(-0.541132 0.844312 0)
(-0.540086 0.844616 0)
(-0.539081 0.844908 0)
(-0.538155 0.845177 0)
(-0.537343 0.845413 0)
(-0.536676 0.845607 0)
(-0.536181 0.84575 0)
(-0.535876 0.845839 0)
(-0.535773 0.845869 0)
(-0.535876 0.845839 0)
(-0.536181 0.84575 0)
(-0.536676 0.845607 0)
(-0.537343 0.845413 0)
(-0.538155 0.845177 0)
(-0.539081 0.844908 0)
(-0.540086 0.844616 0)
(-0.541132 0.844312 0)
(-0.542177 0.844008 0)
(-0.543182 0.843716 0)
(-0.544109 0.843447 0)
(-0.544921 0.843211 0)
(-0.545587 0.843018 0)
(-0.546082 0.842874 0)
(-0.546387 0.842785 0)
(-0.54649 0.842755 0)
(-0.546387 0.842785 0)
(-0.546082 0.842874 0)
(-0.545587 0.843018 0)
(-0.544921 0.843211 0)
(-0.544109 0.843447 0)
(-0.543182 0.843716 0)
(-0.542177 0.844008 0)
(-0.545762 0.860724 0)
(-0.544769 0.860996 0)
(-0.543814 0.861257 0)
(-0.542934 0.861498 0)
(-0.542162 0.861709 0)
(-0.541529 0.861882 0)
(-0.541059 0.862011 0)
(-0.540769 0.86209 0)
(-0.540671 0.862117 0)
(-0.540769 0.86209 0)
(-0.541059 0.862011 0)
(-0.541529 0.861882 0)
(-0.542162 0.861709 0)
(-0.542934 0.861498 0)
(-0.543814 0.861257 0)
(-0.544769 0.860996 0)
(-0.545762 0.860724 0)
(-0.546755 0.860452 0)
(-0.54771 0.860191 0)
(-0.54859 0.85995 0)
(-0.549362 0.859739 0)
(-0.549995 0.859566 0)
(-0.550465 0.859437 0)
(-0.550755 0.859358 0)
(-0.550853 0.859331 0)
(-0.550755 0.859358 0)
(-0.550465 0.859437 0)
(-0.549995 0.859566 0)
(-0.549362 0.859739 0)
(-0.54859 0.85995 0)
(-0.54771 0.860191 0)
(-0.546755 0.860452 0)
(-0.549891 0.876292 0)
(-0.548951 0.876533 0)
(-0.548048 0.876765 0)
(-0.547215 0.876979 0)
(-0.546485 0.877166 0)
(-0.545885 0.87732 0)
(-0.54544 0.877434 0)
(-0.545166 0.877505 0)
(-0.545073 0.877529 0)
(-0.545166 0.877505 0)
(-0.54544 0.877434 0)
(-0.545885 0.87732 0)
(-0.546485 0.877166 0)
(-0.547215 0.876979 0)
(-0.548048 0.876765 0)
(-0.548951 0.876533 0)
(-0.549891 0.876292 0)
(-0.550831 0.87605 0)
(-0.551735 0.875818 0)
(-0.552568 0.875604 0)
(-0.553298 0.875417 0)
(-0.553897 0.875263 0)
(-0.554342 0.875149 0)
(-0.554617 0.875078 0)
(-0.554709 0.875054 0)
(-0.554617 0.875078 0)
(-0.554342 0.875149 0)
(-0.553897 0.875263 0)
(-0.553298 0.875417 0)
(-0.552568 0.875604 0)
(-0.551735 0.875818 0)
(-0.550831 0.87605 0)
(-0.553544 0.89099 0)
(-0.552658 0.891202 0)
(-0.551806 0.891407 0)
(-0.551021 0.891595 0)
(-0.550333 0.89176 0)
(-0.549769 0.891896 0)
(-0.549349 0.891997 0)
(-0.549091 0.892059 0)
(-0.549004 0.89208 0)
(-0.549091 0.892059 0)
(-0.549349 0.891997 0)
(-0.549769 0.891896 0)
(-0.550333 0.89176 0)
(-0.551021 0.891595 0)
(-0.551806 0.891407 0)
(-0.552658 0.891202 0)
(-0.553544 0.89099 0)
(-0.55443 0.890777 0)
(-0.555281 0.890572 0)
(-0.556066 0.890384 0)
(-0.556754 0.890219 0)
(-0.557319 0.890083 0)
(-0.557738 0.889982 0)
(-0.557997 0.88992 0)
(-0.558084 0.889899 0)
(-0.557997 0.88992 0)
(-0.557738 0.889982 0)
(-0.557319 0.890083 0)
(-0.556754 0.890219 0)
(-0.556066 0.890384 0)
(-0.555281 0.890572 0)
(-0.55443 0.890777 0)
(-0.556749 0.904813 0)
(-0.555919 0.904999 0)
(-0.55512 0.905177 0)
(-0.554384 0.905342 0)
(-0.553739 0.905486 0)
(-0.553209 0.905604 0)
(-0.552816 0.905692 0)
(-0.552573 0.905746 0)
(-0.552491 0.905765 0)
(-0.552573 0.905746 0)
(-0.552816 0.905692 0)
(-0.553209 0.905604 0)
(-0.553739 0.905486 0)
(-0.554384 0.905342 0)
(-0.55512 0.905177 0)
(-0.555919 0.904999 0)
(-0.556749 0.904813 0)
(-0.55758 0.904627 0)
(-0.558379 0.904449 0)
(-0.559115 0.904284 0)
(-0.55976 0.90414 0)
(-0.56029 0.904021 0)
(-0.560683 0.903933 0)
(-0.560926 0.903879 0)
(-0.561008 0.903861 0)
(-0.560926 0.903879 0)
(-0.560683 0.903933 0)
(-0.56029 0.904021 0)
(-0.55976 0.90414 0)
(-0.559115 0.904284 0)
(-0.558379 0.904449 0)
(-0.55758 0.904627 0)
(-0.559535 0.917743 0)
(-0.55876 0.917903 0)
(-0.558015 0.918058 0)
(-0.557328 0.9182 0)
(-0.556726 0.918325 0)
(-0.556232 0.918427 0)
(-0.555865 0.918503 0)
(-0.555639 0.91855 0)
(-0.555563 0.918566 0)
(-0.555639 0.91855 0)
(-0.555865 0.918503 0)
(-0.556232 0.918427 0)
(-0.556726 0.918325 0)
(-0.557328 0.9182 0)
(-0.558015 0.918058 0)
(-0.55876 0.917903 0)
(-0.559535 0.917743 0)
(-0.56031 0.917583 0)
(-0.561055 0.917428 0)
(-0.561741 0.917286 0)
(-0.562343 0.917161 0)
(-0.562837 0.917059 0)
(-0.563204 0.916983 0)
(-0.56343 0.916936 0)
(-0.563507 0.91692 0)
(-0.56343 0.916936 0)
(-0.563204 0.916983 0)
(-0.562837 0.917059 0)
(-0.562343 0.917161 0)
(-0.561741 0.917286 0)
(-0.561055 0.917428 0)
(-0.56031 0.917583 0)
(-0.561927 0.929764 0)
(-0.561209 0.929901 0)
(-0.560518 0.930032 0)
(-0.559882 0.930154 0)
(-0.559324 0.93026 0)
(-0.558866 0.930348 0)
(-0.558526 0.930412 0)
(-0.558316 0.930452 0)
(-0.558246 0.930466 0)
(-0.558316 0.930452 0)
(-0.558526 0.930412 0)
(-0.558866 0.930348 0)
(-0.559324 0.93026 0)
(-0.559882 0.930154 0)
(-0.560518 0.930032 0)
(-0.561209 0.929901 0)
(-0.561927 0.929764 0)
(-0.562646 0.929626 0)
(-0.563336 0.929495 0)
(-0.563973 0.929373 0)
(-0.564531 0.929267 0)
(-0.564988 0.92918 0)
(-0.565329 0.929115 0)
(-0.565538 0.929075 0)
(-0.565609 0.929061 0)
(-0.565538 0.929075 0)
(-0.565329 0.929115 0)
(-0.564988 0.92918 0)
(-0.564531 0.929267 0)
(-0.563973 0.929373 0)
(-0.563336 0.929495 0)
(-0.562646 0.929626 0)
(-0.563957 0.940867 0)
(-0.563296 0.940982 0)
(-0.56266 0.941093 0)
(-0.562074 0.941195 0)
(-0.561561 0.941285 0)
(-0.56114 0.941359 0)
(-0.560827 0.941413 0)
(-0.560634 0.941447 0)
(-0.560569 0.941458 0)
(-0.560634 0.941447 0)
(-0.560827 0.941413 0)
(-0.56114 0.941359 0)
(-0.561561 0.941285 0)
(-0.562074 0.941195 0)
(-0.56266 0.941093 0)
(-0.563296 0.940982 0)
(-0.563957 0.940867 0)
(-0.564618 0.940751 0)
(-0.565253 0.940641 0)