/*--------------------------------*- C++ -*----------------------------------*\
| =========                 |                                                 |
| \\      /  F ield         | foam-extend: Open Source CFD                    |
|  \\    /   O peration     | Version:     4.1                                |
|   \\  /    A nd           | Web:         http://www.foam-extend.org         |
|    \\/     M anipulation  |                                                 |
\*---------------------------------------------------------------------------*/
FoamFile
{
    version     2.0;
    format      ascii;
    class       volTensorField;
    location    "0";
    object      refRM;
}
// * * * * * * * * * * * * * * * * * * * * * * * * * * * * * * * * * * * * * //

dimensions      [0 0 0 0 0 0 0];

internalField   nonuniform List<tensor> 
200
(
(0.0157069 -0.999877 0 0.999877 0.0157069 0 0 0 1)
(0.0471051 -0.99889 0 0.99889 0.0471051 0 0 0 1)
(0.0784568 -0.996918 0 0.996918 0.0784568 0 0 0 1)
(0.109731 -0.993961 0 0.993961 0.109731 0 0 0 1)
(0.140897 -0.990024 0 0.990024 0.140897 0 0 0 1)
(0.171924 -0.98511 0 0.98511 0.171924 0 0 0 1)
(0.202781 -0.979224 0 0.979224 0.202781 0 0 0 1)
(0.233439 -0.972372 0 0.972372 0.233439 0 0 0 1)
(0.263865 -0.964559 0 0.964559 0.263865 0 0 0 1)
(0.294032 -0.955796 0 0.955796 0.294032 0 0 0 1)
(0.323908 -0.946089 0 0.946089 0.323908 0 0 0 1)
(0.353465 -0.935448 0 0.935448 0.353465 0 0 0 1)
(0.382673 -0.923884 0 0.923884 0.382673 0 0 0 1)
(0.411503 -0.911408 0 0.911408 0.411503 0 0 0 1)
(0.439927 -0.898033 0 0.898033 0.439927 0 0 0 1)
(0.467917 -0.883772 0 0.883772 0.467917 0 0 0 1)
(0.495445 -0.868639 0 0.868639 0.495445 0 0 0 1)
(0.522485 -0.852649 0 0.852649 0.522485 0 0 0 1)
(0.549008 -0.835817 0 0.835817 0.549008 0 0 0 1)
(0.57499 -0.81816 0 0.81816 0.57499 0 0 0 1)
(0.600405 -0.799696 0 0.799696 0.600405 0 0 0 1)
(0.625227 -0.780443 0 0.780443 0.625227 0 0 0 1)
(0.649432 -0.76042 0 0.76042 0.649432 0 0 0 1)
(0.672996 -0.739646 0 0.739646 0.672996 0 0 0 1)
(0.695896 -0.718142 0 0.718142 0.695896 0 0 0 1)
(0.71811 -0.69593 0 0.69593 0.71811 0 0 0 1)
(0.739615 -0.673031 0 0.673031 0.739615 0 0 0 1)
(0.760389 -0.649467 0 0.649467 0.760389 0 0 0 1)
(0.780414 -0.625263 0 0.625263 0.780414 0 0 0 1)
(0.799668 -0.600442 0 0.600442 0.799668 0 0 0 1)
(0.818133 -0.575028 0 0.575028 0.818133 0 0 0 1)
(0.835791 -0.549047 0 0.549047 0.835791 0 0 0 1)
(0.852623 -0.522526 0 0.522526 0.852623 0 0 0 1)
(0.868615 -0.495488 0 0.495488 0.868615 0 0 0 1)
(0.88375 -0.46796 0 0.46796 0.88375 0 0 0 1)
(0.898012 -0.439971 0 0.439971 0.898012 0 0 0 1)
(0.91139 -0.411543 0 0.411543 0.91139 0 0 0 1)
(0.923867 -0.382713 0 0.382713 0.923867 0 0 0 1)
(0.935431 -0.353511 0 0.353511 0.935431 0 0 0 1)
(0.946073 -0.323954 0 0.323954 0.946073 0 0 0 1)
(0.955781 -0.294079 0 0.294079 0.955781 0 0 0 1)
(0.964547 -0.263913 0 0.263913 0.964547 0 0 0 1)
(0.97236 -0.233486 0 0.233486 0.97236 0 0 0 1)
(0.979214 -0.202829 0 0.202829 0.979214 0 0 0 1)
(0.985103 -0.171967 0 0.171967 0.985103 0 0 0 1)
(0.990018 -0.14094 0 0.14094 0.990018 0 0 0 1)
(0.993956 -0.10978 0 0.10978 0.993956 0 0 0 1)
(0.996914 -0.0785055 0 0.0785055 0.996914 0 0 0 1)
(0.998888 -0.0471538 0 0.0471538 0.998888 0 0 0 1)
(0.999876 -0.0157557 0 0.0157557 0.999876 0 0 0 1)
(0.999877 0.015658 0 -0.015658 0.999877 0 0 0 1)
(0.998892 0.0470563 0 -0.0470563 0.998892 0 0 0 1)
(0.996921 0.0784131 0 -0.0784131 0.996921 0 0 0 1)
(0.993966 0.109688 0 -0.109688 0.993966 0 0 0 1)
(0.990031 0.140849 0 -0.140849 0.990031 0 0 0 1)
(0.985119 0.171876 0 -0.171876 0.985119 0 0 0 1)
(0.979234 0.202734 0 -0.202734 0.979234 0 0 0 1)
(0.972383 0.233391 0 -0.233391 0.972383 0 0 0 1)
(0.964572 0.263818 0 -0.263818 0.964572 0 0 0 1)
(0.95581 0.293985 0 -0.293985 0.95581 0 0 0 1)
(0.946104 0.323862 0 -0.323862 0.946104 0 0 0 1)
(0.935465 0.353419 0 -0.353419 0.935465 0 0 0 1)
(0.923903 0.382628 0 -0.382628 0.923903 0 0 0 1)
(0.911429 0.411458 0 -0.411458 0.911429 0 0 0 1)
(0.898055 0.439883 0 -0.439883 0.898055 0 0 0 1)
(0.883795 0.467874 0 -0.467874 0.883795 0 0 0 1)
(0.868663 0.495403 0 -0.495403 0.868663 0 0 0 1)
(0.852674 0.522443 0 -0.522443 0.852674 0 0 0 1)
(0.835844 0.548968 0 -0.548968 0.835844 0 0 0 1)
(0.818188 0.574951 0 -0.574951 0.818188 0 0 0 1)
(0.799725 0.600366 0 -0.600366 0.799725 0 0 0 1)
(0.780473 0.625189 0 -0.625189 0.780473 0 0 0 1)
(0.760448 0.649399 0 -0.649399 0.760448 0 0 0 1)
(0.739675 0.672964 0 -0.672964 0.739675 0 0 0 1)
(0.718173 0.695865 0 -0.695865 0.718173 0 0 0 1)
(0.695961 0.718079 0 -0.718079 0.695961 0 0 0 1)
(0.673067 0.739582 0 -0.739582 0.673067 0 0 0 1)
(0.649505 0.760358 0 -0.760358 0.649505 0 0 0 1)
(0.625301 0.780383 0 -0.780383 0.625301 0 0 0 1)
(0.600481 0.799639 0 -0.799639 0.600481 0 0 0 1)
(0.575068 0.818105 0 -0.818105 0.575068 0 0 0 1)
(0.549088 0.835765 0 -0.835765 0.549088 0 0 0 1)
(0.522566 0.852599 0 -0.852599 0.522566 0 0 0 1)
(0.495528 0.868592 0 -0.868592 0.495528 0 0 0 1)
(0.468001 0.883728 0 -0.883728 0.468001 0 0 0 1)
(0.440013 0.897992 0 -0.897992 0.440013 0 0 0 1)
(0.41159 0.911369 0 -0.911369 0.41159 0 0 0 1)
(0.382761 0.923848 0 -0.923848 0.382761 0 0 0 1)
(0.353549 0.935416 0 -0.935416 0.353549 0 0 0 1)
(0.323994 0.946059 0 -0.946059 0.323994 0 0 0 1)
(0.294118 0.955769 0 -0.955769 0.294118 0 0 0 1)
(0.263952 0.964536 0 -0.964536 0.263952 0 0 0 1)
(0.233531 0.972349 0 -0.972349 0.233531 0 0 0 1)
(0.202875 0.979205 0 -0.979205 0.202875 0 0 0 1)
(0.172018 0.985094 0 -0.985094 0.172018 0 0 0 1)
(0.140991 0.990011 0 -0.990011 0.140991 0 0 0 1)
(0.109826 0.993951 0 -0.993951 0.109826 0 0 0 1)
(0.0785516 0.99691 0 -0.99691 0.0785516 0 0 0 1)
(0.0472001 0.998885 0 -0.998885 0.0472001 0 0 0 1)
(1 0 0 0 1 0 0 0 1)
(1 0 0 0 1 0 0 0 1)
(1 0 0 0 1 0 0 0 1)
(1 0 0 0 1 0 0 0 1)
(1 0 0 0 1 0 0 0 1)
(1 0 0 0 1 0 0 0 1)
(1 0 0 0 1 0 0 0 1)
(1 0 0 0 1 0 0 0 1)
(1 0 0 0 1 0 0 0 1)
(1 0 0 0 1 0 0 0 1)
(1 0 0 0 1 0 0 0 1)
(1 0 0 0 1 0 0 0 1)
(1 0 0 0 1 0 0 0 1)
(1 0 0 0 1 0 0 0 1)
(1 0 0 0 1 0 0 0 1)
(1 0 0 0 1 0 0 0 1)
(1 0 0 0 1 0 0 0 1)
(1 0 0 0 1 0 0 0 1)
(1 0 0 0 1 0 0 0 1)
(1 0 0 0 1 0 0 0 1)
(1 0 0 0 1 0 0 0 1)
(1 0 0 0 1 0 0 0 1)
(1 0 0 0 1 0 0 0 1)
(1 0 0 0 1 0 0 0 1)
(1 0 0 0 1 0 0 0 1)
(1 0 0 0 1 0 0 0 1)
(1 0 0 0 1 0 0 0 1)
(1 0 0 0 1 0 0 0 1)
(1 0 0 0 1 0 0 0 1)
(1 0 0 0 1 0 0 0 1)
(1 0 0 0 1 0 0 0 1)
(1 0 0 0 1 0 0 0 1)
(1 0 0 0 1 0 0 0 1)
(1 0 0 0 1 0 0 0 1)
(1 0 0 0 1 0 0 0 1)
(1 0 0 0 1 0 0 0 1)
(1 0 0 0 1 0 0 0 1)
(1 0 0 0 1 0 0 0 1)
(1 0 0 0 1 0 0 0 1)
(1 0 0 0 1 0 0 0 1)
(1 0 0 0 1 0 0 0 1)
(1 0 0 0 1 0 0 0 1)
(1 0 0 0 1 0 0 0 1)
(1 0 0 0 1 0 0 0 1)
(1 0 0 0 1 0 0 0 1)
(1 0 0 0 1 0 0 0 1)
(1 0 0 0 1 0 0 0 1)
(1 0 0 0 1 0 0 0 1)
(1 0 0 0 1 0 0 0 1)
(1 0 0 0 1 0 0 0 1)
(1 0 0 0 1 0 0 0 1)
(1 0 0 0 1 0 0 0 1)
(1 0 0 0 1 0 0 0 1)
(1 0 0 0 1 0 0 0 1)
(1 0 0 0 1 0 0 0 1)
(1 0 0 0 1 0 0 0 1)
(1 0 0 0 1 0 0 0 1)
(1 0 0 0 1 0 0 0 1)
(1 0 0 0 1 0 0 0 1)
(1 0 0 0 1 0 0 0 1)
(1 0 0 0 1 0 0 0 1)
(1 0 0 0 1 0 0 0 1)
(1 0 0 0 1 0 0 0 1)
(1 0 0 0 1 0 0 0 1)
(1 0 0 0 1 0 0 0 1)
(1 0 0 0 1 0 0 0 1)
(1 0 0 0 1 0 0 0 1)
(1 0 0 0 1 0 0 0 1)
(1 0 0 0 1 0 0 0 1)
(1 0 0 0 1 0 0 0 1)
(1 0 0 0 1 0 0 0 1)
(1 0 0 0 1 0 0 0 1)
(1 0 0 0 1 0 0 0 1)
(1 0 0 0 1 0 0 0 1)
(1 0 0 0 1 0 0 0 1)
(1 0 0 0 1 0 0 0 1)
(1 0 0 0 1 0 0 0 1)
(1 0 0 0 1 0 0 0 1)
(1 0 0 0 1 0 0 0 1)
(1 0 0 0 1 0 0 0 1)
(1 0 0 0 1 0 0 0 1)
(1 0 0 0 1 0 0 0 1)
(1 0 0 0 1 0 0 0 1)
(1 0 0 0 1 0 0 0 1)
(1 0 0 0 1 0 0 0 1)
(1 0 0 0 1 0 0 0 1)
(1 0 0 0 1 0 0 0 1)
(1 0 0 0 1 0 0 0 1)
(1 0 0 0 1 0 0 0 1)
(1 0 0 0 1 0 0 0 1)
(1 0 0 0 1 0 0 0 1)
(1 0 0 0 1 0 0 0 1)
(1 0 0 0 1 0 0 0 1)
(1 0 0 0 1 0 0 0 1)
(1 0 0 0 1 0 0 0 1)
(1 0 0 0 1 0 0 0 1)
(1 0 0 0 1 0 0 0 1)
(1 0 0 0 1 0 0 0 1)
(1 0 0 0 1 0 0 0 1)
(1 0 0 0 1 0 0 0 1)
(0.841471 -0.540302 0 0.540302 0.841471 0 0 0 1)
)
;

boundaryField
{
    left_0
    {
        type            calculated;
        value           uniform (6.12323e-17 -1 0 1 6.12323e-17 0 0 0 1);
    }
    left_1
    {
        type            calculated;
        value           uniform (1 0 0 0 1 0 0 0 1);
    }
    right_0
    {
        type            calculated;
        value           uniform (9.26536e-05 1 0 -1 9.26536e-05 0 0 0 1);
    }
    right_1
    {
        type            calculated;
        value           uniform (1 0 0 0 1 0 0 0 1);
    }
    beam
    {
        type            empty;
    }
}


// ************************************************************************* //
