/*--------------------------------*- C++ -*----------------------------------*\
| =========                 |                                                 |
| \\      /  F ield         | foam-extend: Open Source CFD                    |
|  \\    /   O peration     | Version:     4.1                                |
|   \\  /    A nd           | Web:         http://www.foam-extend.org         |
|    \\/     M anipulation  |                                                 |
\*---------------------------------------------------------------------------*/
FoamFile
{
    version     2.0;
    format      ascii;
    class       surfaceVectorField;
    location    "0";
    object      refTangent;
}
// * * * * * * * * * * * * * * * * * * * * * * * * * * * * * * * * * * * * * //

dimensions      [0 0 0 0 0 0 0];

internalField   nonuniform List<vector> 
198
(
(0.0314098 0.999507 0)
(0.0627887 0.998027 0)
(0.0941055 0.995562 0)
(0.12533 0.992115 0)
(0.15643 0.987689 0)
(0.187376 0.982288 0)
(0.218137 0.975918 0)
(0.248683 0.968585 0)
(0.278983 0.960296 0)
(0.309008 0.951059 0)
(0.338728 0.940884 0)
(0.368114 0.929781 0)
(0.397137 0.917759 0)
(0.425768 0.904833 0)
(0.453978 0.891013 0)
(0.481741 0.876314 0)
(0.509028 0.86075 0)
(0.535813 0.844337 0)
(0.562069 0.82709 0)
(0.58777 0.809028 0)
(0.612892 0.790167 0)
(0.637408 0.770526 0)
(0.661296 0.750125 0)
(0.684531 0.728984 0)
(0.70709 0.707123 0)
(0.728952 0.684565 0)
(0.750095 0.661331 0)
(0.770497 0.637444 0)
(0.790139 0.612928 0)
(0.809001 0.587808 0)
(0.827064 0.562107 0)
(0.844312 0.535852 0)
(0.860724 0.509072 0)
(0.876292 0.481781 0)
(0.89099 0.454024 0)
(0.904813 0.425809 0)
(0.917743 0.397175 0)
(0.929764 0.368157 0)
(0.940867 0.338777 0)
(0.951045 0.309052 0)
(0.960282 0.279032 0)
(0.968573 0.248728 0)
(0.975907 0.218187 0)
(0.98228 0.187421 0)
(0.987683 0.156471 0)
(0.992109 0.125376 0)
(0.995557 0.0941566 0)
(0.998024 0.0628349 0)
(0.999505 0.0314611 0)
(1 4.63268e-05 0)
(0.999508 -0.0313585 0)
(0.99803 -0.0627424 0)
(0.995566 -0.0940644 0)
(0.992121 -0.125284 0)
(0.987697 -0.156379 0)
(0.982297 -0.18733 0)
(0.975929 -0.218087 0)
(0.968597 -0.248638 0)
(0.96031 -0.278934 0)
(0.951074 -0.308964 0)
(0.940902 -0.33868 0)
(0.929798 -0.368071 0)
(0.91778 -0.39709 0)
(0.904852 -0.425726 0)
(0.891036 -0.453932 0)
(0.876336 -0.4817 0)
(0.860776 -0.508984 0)
(0.844362 -0.535774 0)
(0.827119 -0.562026 0)
(0.809055 -0.587733 0)
(0.790198 -0.612851 0)
(0.770556 -0.637373 0)
(0.750152 -0.661265 0)
(0.729016 -0.684497 0)
(0.707152 -0.707061 0)
(0.684598 -0.72892 0)
(0.661369 -0.750061 0)
(0.63748 -0.770467 0)
(0.612969 -0.790107 0)
(0.587845 -0.808973 0)
(0.56215 -0.827036 0)
(0.535891 -0.844287 0)
(0.509112 -0.8607 0)
(0.481822 -0.876269 0)
(0.454065 -0.890968 0)
(0.425851 -0.904793 0)
(0.397226 -0.917721 0)
(0.3682 -0.929746 0)
(0.338811 -0.940855 0)
(0.309096 -0.951031 0)
(0.279067 -0.960272 0)
(0.248772 -0.968562 0)
(0.218232 -0.975897 0)
(0.187467 -0.982271 0)
(0.156526 -0.987674 0)
(0.125421 -0.992104 0)
(0.0942028 -0.995553 0)
(0.0628811 -0.998021 0)
(0.0315074 -0.999504 0)
(1 0 0)
(1 0 0)
(1 0 0)
(1 0 0)
(1 0 0)
(1 0 0)
(1 0 0)
(1 0 0)
(1 0 0)
(1 0 0)
(1 0 0)
(1 0 0)
(1 0 0)
(1 0 0)
(1 0 0)
(1 0 0)
(1 0 0)
(1 0 0)
(1 0 0)
(1 0 0)
(1 0 0)
(1 0 0)
(1 0 0)
(1 0 0)
(1 0 0)
(1 0 0)
(1 0 0)
(1 0 0)
(1 0 0)
(1 0 0)
(1 0 0)
(1 0 0)
(1 0 0)
(1 0 0)
(1 0 0)
(1 0 0)
(1 0 0)
(1 0 0)
(1 0 0)
(1 0 0)
(1 0 0)
(1 0 0)
(1 0 0)
(1 0 0)
(1 0 0)
(1 0 0)
(1 0 0)
(1 0 0)
(1 0 0)
(1 0 0)
(1 0 0)
(1 0 0)
(1 0 0)
(1 0 0)
(1 0 0)
(1 0 0)
(1 0 0)
(1 0 0)
(1 0 0)
(1 0 0)
(1 0 0)
(1 0 0)
(1 0 0)
(1 0 0)
(1 0 0)
(1 0 0)
(1 0 0)
(1 0 0)
(1 0 0)
(1 0 0)
(1 0 0)
(1 0 0)
(1 0 0)
(1 0 0)
(1 0 0)
(1 0 0)
(1 0 0)
(1 0 0)
(1 0 0)
(1 0 0)
(1 0 0)
(1 0 0)
(1 0 0)
(1 0 0)
(1 0 0)
(1 0 0)
(1 0 0)
(1 0 0)
(1 0 0)
(1 0 0)
(1 0 0)
(1 0 0)
(1 0 0)
(1 0 0)
(1 0 0)
(1 0 0)
(1 0 0)
(1 0 0)
(1 0 0)
)
;

boundaryField
{
    left_0
    {
        type            calculated;
        value           uniform (6.12323e-17 1 0);
    }
    left_1
    {
        type            calculated;
        value           uniform (1 0 0);
    }
    right_0
    {
        type            calculated;
        value           uniform (9.26536e-05 -1 0);
    }
    right_1
    {
        type            calculated;
        value           uniform (1 0 0);
    }
    beam
    {
        type            empty;
    }
}


// ************************************************************************* //
