/*--------------------------------*- C++ -*----------------------------------*\
| =========                 |                                                 |
| \\      /  F ield         | foam-extend: Open Source CFD                    |
|  \\    /   O peration     | Version:     4.1                                |
|   \\  /    A nd           | Web:         http://www.foam-extend.org         |
|    \\/     M anipulation  |                                                 |
\*---------------------------------------------------------------------------*/
FoamFile
{
    version     2.0;
    format      ascii;
    class       surfaceVectorField;
    location    "0";
    object      refWf;
}
// * * * * * * * * * * * * * * * * * * * * * * * * * * * * * * * * * * * * * //

dimensions      [0 1 0 0 0 0 0];

internalField   nonuniform List<vector> 
198
(
(-0.0309216 0.0314098 0)
(-0.0608568 0.0627887 0)
(-0.0898072 0.0941055 0)
(-0.117775 0.12533 0)
(-0.144764 0.15643 0)
(-0.170778 0.187376 0)
(-0.195823 0.218137 0)
(-0.219905 0.248683 0)
(-0.243031 0.278983 0)
(-0.265209 0.309008 0)
(-0.286449 0.338728 0)
(-0.306761 0.368114 0)
(-0.326154 0.397137 0)
(-0.344643 0.425768 0)
(-0.362238 0.453978 0)
(-0.378954 0.481741 0)
(-0.394805 0.509028 0)
(-0.409807 0.535813 0)
(-0.423975 0.562069 0)
(-0.437328 0.58777 0)
(-0.449882 0.612892 0)
(-0.461656 0.637408 0)
(-0.47267 0.661296 0)
(-0.482944 0.684531 0)
(-0.492498 0.70709 0)
(-0.501355 0.728952 0)
(-0.509536 0.750095 0)
(-0.517064 0.770497 0)
(-0.523963 0.790139 0)
(-0.530258 0.809001 0)
(-0.535972 0.827064 0)
(-0.541132 0.844312 0)
(-0.545762 0.860724 0)
(-0.549891 0.876292 0)
(-0.553544 0.89099 0)
(-0.556749 0.904813 0)
(-0.559535 0.917743 0)
(-0.561927 0.929764 0)
(-0.563957 0.940867 0)
(-0.565652 0.951045 0)
(-0.567042 0.960282 0)
(-0.568158 0.968573 0)
(-0.569027 0.975907 0)
(-0.569681 0.98228 0)
(-0.570151 0.987683 0)
(-0.570466 0.992109 0)
(-0.570657 0.995557 0)
(-0.570755 0.998024 0)
(-0.570791 0.999505 0)
(-0.570796 1 0)
(-0.570801 0.999508 0)
(-0.570838 0.99803 0)
(-0.570936 0.995566 0)
(-0.571126 0.992121 0)
(-0.571441 0.987697 0)
(-0.57191 0.982297 0)
(-0.572563 0.975929 0)
(-0.573432 0.968597 0)
(-0.574546 0.96031 0)
(-0.575936 0.951074 0)
(-0.57763 0.940902 0)
(-0.579659 0.929798 0)
(-0.58205 0.91778 0)
(-0.584834 0.904852 0)
(-0.588038 0.891036 0)
(-0.59169 0.876336 0)
(-0.595816 0.860776 0)
(-0.600446 0.844362 0)
(-0.605604 0.827119 0)
(-0.611317 0.809055 0)
(-0.617609 0.790198 0)
(-0.624507 0.770556 0)
(-0.632035 0.750152 0)
(-0.640213 0.729016 0)
(-0.649069 0.707152 0)
(-0.65862 0.684598 0)
(-0.668889 0.661369 0)
(-0.679903 0.63748 0)
(-0.691673 0.612969 0)
(-0.704227 0.587845 0)
(-0.717574 0.56215 0)
(-0.731743 0.535891 0)
(-0.74674 0.509112 0)
(-0.762591 0.481822 0)
(-0.779302 0.454065 0)
(-0.796897 0.425851 0)
(-0.815379 0.397226 0)
(-0.834774 0.3682 0)
(-0.855085 0.338811 0)
(-0.876319 0.309096 0)
(-0.898498 0.279067 0)
(-0.921618 0.248772 0)
(-0.945693 0.218232 0)
(-0.970739 0.187467 0)
(-0.996746 0.156526 0)
(-1.02374 0.125421 0)
(-1.0517 0.0942028 0)
(-1.08065 0.0628811 0)
(-1.11058 0.0315074 0)
(0 0 0)
(0 0 0)
(0 0 0)
(0 0 0)
(0 0 0)
(0 0 0)
(0 0 0)
(0 0 0)
(0 0 0)
(0 0 0)
(0 0 0)
(0 0 0)
(0 0 0)
(0 0 0)
(0 0 0)
(0 0 0)
(0 0 0)
(0 0 0)
(0 0 0)
(0 0 0)
(0 0 0)
(0 0 0)
(0 0 0)
(0 0 0)
(0 0 0)
(0 0 0)
(0 0 0)
(0 0 0)
(0 0 0)
(0 0 0)
(0 0 0)
(0 0 0)
(0 0 0)
(0 0 0)
(0 0 0)
(0 0 0)
(0 0 0)
(0 0 0)
(0 0 0)
(0 0 0)
(0 0 0)
(0 0 0)
(0 0 0)
(0 0 0)
(0 0 0)
(0 0 0)
(0 0 0)
(0 0 0)
(0 0 0)
(0 0 0)
(0 0 0)
(0 0 0)
(0 0 0)
(0 0 0)
(0 0 0)
(0 0 0)
(0 0 0)
(0 0 0)
(0 0 0)
(0 0 0)
(0 0 0)
(0 0 0)
(0 0 0)
(0 0 0)
(0 0 0)
(0 0 0)
(0 0 0)
(0 0 0)
(0 0 0)
(0 0 0)
(0 0 0)
(0 0 0)
(0 0 0)
(0 0 0)
(0 0 0)
(0 0 0)
(0 0 0)
(0 0 0)
(0 0 0)
(0 0 0)
(0 0 0)
(0 0 0)
(0 0 0)
(0 0 0)
(0 0 0)
(0 0 0)
(0 0 0)
(0 0 0)
(0 0 0)
(0 0 0)
(0 0 0)
(0 0 0)
(0 0 0)
(0 0 0)
(0 0 0)
(0 0 0)
(0 0 0)
(0 0 0)
(0 0 0)
)
;

boundaryField
{
    left_0
    {
        type            calculated;
        value           uniform (-1.4122e-35 1.4122e-35 0);
    }
    left_1
    {
        type            calculated;
        value           uniform (0 0 0);
    }
    right_0
    {
        type            calculated;
        value           uniform (-1.1415 9.26536e-05 0);
    }
    right_1
    {
        type            calculated;
        value           uniform (0 0 0);
    }
    beam
    {
        type            empty;
    }
}


// ************************************************************************* //
