/*--------------------------------*- C++ -*----------------------------------*\
| =========                 |                                                 |
| \\      /  F ield         | foam-extend: Open Source CFD                    |
|  \\    /   O peration     | Version:     4.1                                |
|   \\  /    A nd           | Web:         http://www.foam-extend.org         |
|    \\/     M anipulation  |                                                 |
\*---------------------------------------------------------------------------*/
FoamFile
{
    version     2.0;
    format      ascii;
    class       volVectorField;
    location    "0";
    object      refW;
}
// * * * * * * * * * * * * * * * * * * * * * * * * * * * * * * * * * * * * * //

dimensions      [0 1 0 0 0 0 0];

internalField   nonuniform List<vector> 
200
(
(-0.0155841 0.0157069 0)
(-0.0460124 0.0471051 0)
(-0.075455 0.0784568 0)
(-0.103914 0.109731 0)
(-0.131392 0.140897 0)
(-0.157893 0.171924 0)
(-0.183422 0.202781 0)
(-0.207984 0.233439 0)
(-0.231587 0.263865 0)
(-0.254238 0.294032 0)
(-0.275946 0.323908 0)
(-0.29672 0.353465 0)
(-0.316571 0.382673 0)
(-0.335511 0.411503 0)
(-0.353551 0.439927 0)
(-0.370705 0.467917 0)
(-0.386987 0.495445 0)
(-0.402411 0.522485 0)
(-0.416994 0.549008 0)
(-0.430753 0.57499 0)
(-0.443704 0.600405 0)
(-0.455865 0.625227 0)
(-0.467257 0.649432 0)
(-0.477898 0.672996 0)
(-0.48781 0.695896 0)
(-0.497012 0.71811 0)
(-0.505528 0.739615 0)
(-0.51338 0.760389 0)
(-0.520591 0.780414 0)
(-0.527185 0.799668 0)
(-0.533186 0.818133 0)
(-0.53862 0.835791 0)
(-0.543511 0.852623 0)
(-0.547888 0.868615 0)
(-0.551775 0.88375 0)
(-0.555201 0.898012 0)
(-0.558193 0.91139 0)
(-0.560778 0.923867 0)
(-0.562986 0.935431 0)
(-0.564844 0.946073 0)
(-0.566384 0.955781 0)
(-0.567633 0.964547 0)
(-0.568621 0.97236 0)
(-0.569379 0.979214 0)
(-0.569937 0.985103 0)
(-0.570325 0.990018 0)
(-0.570575 0.993956 0)
(-0.570715 0.996914 0)
(-0.570779 0.998888 0)
(-0.570796 0.999876 0)
(-0.570797 0.999877 0)
(-0.570814 0.998892 0)
(-0.570877 0.996921 0)
(-0.571017 0.993966 0)
(-0.571266 0.990031 0)
(-0.571654 0.985119 0)
(-0.572211 0.979234 0)
(-0.572969 0.972383 0)
(-0.573957 0.964572 0)
(-0.575205 0.95581 0)
(-0.576743 0.946104 0)
(-0.578601 0.935465 0)
(-0.580807 0.923903 0)
(-0.583392 0.911429 0)
(-0.586382 0.898055 0)
(-0.589806 0.883795 0)
(-0.593692 0.868663 0)
(-0.598067 0.852674 0)
(-0.602957 0.835844 0)
(-0.608389 0.818188 0)
(-0.614389 0.799725 0)
(-0.620981 0.780473 0)
(-0.628191 0.760448 0)
(-0.636041 0.739675 0)
(-0.644555 0.718173 0)
(-0.653756 0.695961 0)
(-0.663663 0.673067 0)
(-0.674302 0.649505 0)
(-0.685692 0.625301 0)
(-0.697851 0.600481 0)
(-0.7108 0.575068 0)
(-0.724555 0.549088 0)
(-0.739136 0.522566 0)
(-0.754558 0.495528 0)
(-0.770837 0.468001 0)
(-0.787988 0.440013 0)
(-0.806026 0.41159 0)
(-0.824962 0.382761 0)
(-0.844814 0.353549 0)
(-0.865586 0.323994 0)
(-0.887291 0.294118 0)
(-0.909939 0.263952 0)
(-0.933536 0.233531 0)
(-0.958095 0.202875 0)
(-0.983621 0.172018 0)
(-1.01012 0.140991 0)
(-1.03759 0.109826 0)
(-1.06605 0.0785516 0)
(-1.09549 0.0472001 0)
(0 0 0)
(0 0 0)
(0 0 0)
(0 0 0)
(0 0 0)
(0 0 0)
(0 0 0)
(0 0 0)
(0 0 0)
(0 0 0)
(0 0 0)
(0 0 0)
(0 0 0)
(0 0 0)
(0 0 0)
(0 0 0)
(0 0 0)
(0 0 0)
(0 0 0)
(0 0 0)
(0 0 0)
(0 0 0)
(0 0 0)
(0 0 0)
(0 0 0)
(0 0 0)
(0 0 0)
(0 0 0)
(0 0 0)
(0 0 0)
(0 0 0)
(0 0 0)
(0 0 0)
(0 0 0)
(0 0 0)
(0 0 0)
(0 0 0)
(0 0 0)
(0 0 0)
(0 0 0)
(0 0 0)
(0 0 0)
(0 0 0)
(0 0 0)
(0 0 0)
(0 0 0)
(0 0 0)
(0 0 0)
(0 0 0)
(0 0 0)
(0 0 0)
(0 0 0)
(0 0 0)
(0 0 0)
(0 0 0)
(0 0 0)
(0 0 0)
(0 0 0)
(0 0 0)
(0 0 0)
(0 0 0)
(0 0 0)
(0 0 0)
(0 0 0)
(0 0 0)
(0 0 0)
(0 0 0)
(0 0 0)
(0 0 0)
(0 0 0)
(0 0 0)
(0 0 0)
(0 0 0)
(0 0 0)
(0 0 0)
(0 0 0)
(0 0 0)
(0 0 0)
(0 0 0)
(0 0 0)
(0 0 0)
(0 0 0)
(0 0 0)
(0 0 0)
(0 0 0)
(0 0 0)
(0 0 0)
(0 0 0)
(0 0 0)
(0 0 0)
(0 0 0)
(0 0 0)
(0 0 0)
(0 0 0)
(0 0 0)
(0 0 0)
(0 0 0)
(0 0 0)
(0 0 0)
(0 0 0)
(-0.540302 0.841471 0)
)
;

boundaryField
{
    left_0
    {
        type            calculated;
        value           uniform (0 0 0);
    }
    left_1
    {
        type            calculated;
        value           uniform (0 0 0);
    }
    right_0
    {
        type            calculated;
        value           uniform (0 0 0);
    }
    right_1
    {
        type            calculated;
        value           uniform (0 0 0);
    }
    beam
    {
        type            empty;
    }
}


// ************************************************************************* //
