/*--------------------------------*- C++ -*----------------------------------*\
| =========                 |                                                 |
| \\      /  F ield         | OpenFOAM: The Open Source CFD Toolbox           |
|  \\    /   O peration     | Version:  2312                                  |
|   \\  /    A nd           | Website:  www.openfoam.com                      |
|    \\/     M anipulation  |                                                 |
\*---------------------------------------------------------------------------*/
FoamFile
{
    version     2.0;
    format      ascii;
    arch        "LSB;label=32;scalar=64";
    class       surfaceVectorField;
    location    "0.15/beam";
    object      Gamma;
}
// * * * * * * * * * * * * * * * * * * * * * * * * * * * * * * * * * * * * * //

dimensions      [0 0 0 0 0 0 0];

oriented        oriented;

internalField   nonuniform List<vector> 
59
(
(0.0007012472713 -3.671696354e-17 6.575992676e-09)
(0.0007012451462 -3.742156692e-17 7.42865121e-09)
(0.0007012416334 -3.859701494e-17 8.792388384e-09)
(0.0007012367756 -4.024393021e-17 1.058472769e-08)
(0.0007012306311 -4.236094721e-17 1.269722404e-08)
(0.0007012232723 -4.494307094e-17 1.500217657e-08)
(0.000701214784 -4.797866142e-17 1.736039152e-08)
(0.0007012052615 -5.144837418e-17 1.962949692e-08)
(0.0007011948083 -5.532289783e-17 2.167309995e-08)
(0.0007011835344 -5.95613561e-17 2.336918009e-08)
(0.0007011715539 -6.411156128e-17 2.461756166e-08)
(0.0007011589831 -6.89113485e-17 2.534646778e-08)
(0.0007011459387 -7.388880318e-17 2.551652882e-08)
(0.0007011325359 -7.896535382e-17 2.512357651e-08)
(0.0007011188871 -8.405958821e-17 2.419797251e-08)
(0.0007011051003 -8.909132539e-17 2.280247904e-08)
(0.0007010912778 -9.398568358e-17 2.102708767e-08)
(0.0007010775155 -9.867861391e-17 1.898240625e-08)
(0.0007010639017 -1.031202843e-16 1.679124029e-08)
(0.000701050517 -1.072765556e-16 1.45797771e-08)
(0.0007010374334 -1.11132297e-16 1.24682802e-08)
(0.0007010247143 -1.146886746e-16 1.056264296e-08)
(0.0007010124158 -1.179636919e-16 8.948399414e-09)
(0.0007010005804 -1.209851353e-16 7.684561245e-09)
(0.0007009892516 -1.237853338e-16 6.804607328e-09)
(0.0007009784555 -1.26397401e-16 6.315641573e-09)
(0.0007009682209 -1.288450067e-16 6.205197268e-09)
(0.0007009585614 -1.31139797e-16 6.44855983e-09)
(0.0007009494945 -1.332746489e-16 7.01977316e-09)
(0.0007009410247 -1.35249791e-16 7.904693325e-09)
(0.0007009331612 -1.370152072e-16 9.112743047e-09)
(0.0007009259028 -1.385156123e-16 1.068995058e-08)
(0.0007009192535 -1.397282814e-16 1.272395625e-08)
(0.0007009132094 -1.406162733e-16 1.534751116e-08)
(0.0007009077712 -1.411432919e-16 1.87243576e-08)
(0.0007009029344 -1.412596823e-16 2.30300142e-08)
(0.0007008986988 -1.408671959e-16 2.84026949e-08)
(0.0007008950605 -1.39760715e-16 3.48891177e-08)
(0.0007008920203 -1.375455703e-16 4.235063116e-08)
(0.0007008895773 -1.335318737e-16 5.037753489e-08)
(0.000700887735 -1.266328977e-16 5.817277645e-08)
(0.000700886498 -1.152784624e-16 6.448481878e-08)
(0.0007008858754 -9.742845267e-17 6.756310611e-08)
(0.0007008858787 -7.069063424e-17 6.523836479e-08)
(0.0007008865212 -3.271247935e-17 5.513721148e-08)
(0.0007008878149 1.824199618e-17 3.509110435e-08)
(0.0007008897641 8.229597886e-17 3.788668802e-09)
(0.0007008923599 1.569277904e-16 -3.84581642e-08)
(0.0007008955713 2.357361014e-16 -8.880290782e-08)
(0.0007008993482 3.079254411e-16 -1.413155435e-07)
(0.0007009036246 3.586066548e-16 -1.86866701e-07)
(0.0007009083436 3.71280131e-16 -2.142833322e-07)
(0.0007009134704 3.32713183e-16 -2.127880414e-07)
(0.0007009190047 2.407975944e-16 -1.760487532e-07)
(0.0007009249471 1.146148881e-16 -1.069183644e-07)
(0.0007009312633 4.352065038e-18 -2.096385288e-08)
(0.0007009378509 -1.230924177e-18 5.384134318e-08)
(0.0007009445952 2.281687307e-16 8.441315864e-08)
(0.0007009514453 8.702895318e-16 4.513638383e-08)
)
;

boundaryField
{
    left
    {
        type            calculated;
        value           uniform (-0.0007012479826 -4.513573699e-14 -6.285968982e-09);
    }
    right
    {
        type            calculated;
        value           uniform (0.000700958446 -4.297951895e-14 -7.600051631e-08);
    }
    beam
    {
        type            empty;
        value           nonuniform List<vector> 0();
    }
}


// ************************************************************************* //
