/*--------------------------------*- C++ -*----------------------------------*\
| =========                 |                                                 |
| \\      /  F ield         | OpenFOAM: The Open Source CFD Toolbox           |
|  \\    /   O peration     | Version:  2312                                  |
|   \\  /    A nd           | Website:  www.openfoam.com                      |
|    \\/     M anipulation  |                                                 |
\*---------------------------------------------------------------------------*/
FoamFile
{
    version     2.0;
    format      ascii;
    arch        "LSB;label=32;scalar=64";
    class       surfaceVectorField;
    location    "0.15/beam";
    object      K;
}
// * * * * * * * * * * * * * * * * * * * * * * * * * * * * * * * * * * * * * //

dimensions      [0 -1 0 0 0 0 0];

oriented        oriented;

internalField   nonuniform List<vector> 
59
(
(-1.308153247e-17 7.121826407e-05 4.053829237e-13)
(-2.615208011e-17 0.0001487660288 8.159689259e-13)
(-3.919615774e-17 0.0002385902652 1.23696716e-12)
(-5.218936102e-17 0.000345895804 1.673596108e-12)
(-6.509455832e-17 0.0004748299745 2.131070882e-12)
(-7.785902298e-17 0.0006282321081 2.614570647e-12)
(-9.041271701e-17 0.0008074632217 3.129182955e-12)
(-1.026672753e-16 0.001012324755 3.679823171e-12)
(-1.145172794e-16 0.001241074082 4.271137916e-12)
(-1.258447605e-16 0.001490537239 4.907385822e-12)
(-1.365218683e-16 0.001756309524 5.592309046e-12)
(-1.464178344e-16 0.002033033798 6.329016363e-12)
(-1.55405701e-16 0.002314737293 7.11987388e-12)
(-1.633735798e-16 0.00259520609 7.966414709e-12)
(-1.702293409e-16 0.002868371367 8.869285463e-12)
(-1.759104369e-16 0.00312868013 9.828237997e-12)
(-1.803891354e-16 0.003371425505 1.084216495e-11)
(-1.836728141e-16 0.00359301176 1.190918978e-11)
(-1.858052786e-16 0.003791136059 1.302680538e-11)
(-1.868685237e-16 0.003964874759 1.419203898e-11)
(-1.869695162e-16 0.004114669318 1.540164488e-11)
(-1.862355931e-16 0.00424221058 1.665226475e-11)
(-1.848028815e-16 0.004350256283 1.794071781e-11)
(-1.828071538e-16 0.004442364791 1.926407739e-11)
(-1.803759492e-16 0.004522600055 2.061967767e-11)
(-1.776192151e-16 0.004595254053 2.200525178e-11)
(-1.746320994e-16 0.004664588872 2.341884733e-11)
(-1.715040349e-16 0.004734660496 2.485870761e-11)
(-1.683295179e-16 0.004809243975 2.632309989e-11)
(-1.651470946e-16 0.004891892019 2.781025503e-11)
(-1.621854756e-16 0.004986130864 2.931812673e-11)
(-1.597493463e-16 0.005095793668 3.084408648e-11)
(-1.581011053e-16 0.005225453715 3.238507267e-11)
(-1.576889638e-16 0.005380905022 3.393769386e-11)
(-1.590674972e-16 0.005569583947 3.549815215e-11)
(-1.628701361e-16 0.005800806584 3.706217535e-11)
(-1.697094005e-16 0.006085627616 3.86246723e-11)
(-1.800662212e-16 0.006436127721 4.017887413e-11)
(-1.940429496e-16 0.00686388034 4.17146914e-11)
(-2.111625431e-16 0.007377424598 4.321603168e-11)
(-2.300185305e-16 0.007978618285 4.465696439e-11)
(-2.481134767e-16 0.008657975473 4.599684665e-11)
(-2.616574957e-16 0.009389383338 4.717503888e-11)
(-2.657790344e-16 0.01012501768 4.810634975e-11)
(-2.549929435e-16 0.01079188847 4.867929861e-11)
(-2.241568021e-16 0.01129184023 4.875974466e-11)
(-1.699195625e-16 0.01150742765 4.820322622e-11)
(-9.223252327e-17 0.01131565096 4.687853804e-11)
(3.847224606e-18 0.01061098367 4.470386999e-11)
(1.074583401e-16 0.009336495634 4.169264427e-11)
(2.017712587e-16 0.007518668775 3.800055944e-11)
(2.662838539e-16 0.005296462242 3.395722902e-11)
(2.808893586e-16 0.002930478658 3.005707931e-11)
(2.332348183e-16 0.0007761804384 2.687970315e-11)
(1.281666243e-16 -0.0007915914064 2.491093627e-11)
(-3.963352846e-18 -0.001499957023 2.425319952e-11)
(-1.081084203e-16 -0.001317246827 2.423950708e-11)
(-1.29339048e-16 -0.0005501903582 2.29896835e-11)
(-6.400557916e-17 0.000169066738 1.691779053e-11)
)
;

boundaryField
{
    left
    {
        type            calculated;
        value           uniform (-2.182560494e-31 2.227162404e-30 -1.200626389e-32);
    }
    right
    {
        type            calculated;
        value           uniform (5.597637835e-31 -3.062002313e-29 5.629462538e-32);
    }
    beam
    {
        type            empty;
        value           nonuniform List<vector> 0();
    }
}


// ************************************************************************* //
