/*--------------------------------*- C++ -*----------------------------------*\
| =========                 |                                                 |
| \\      /  F ield         | OpenFOAM: The Open Source CFD Toolbox           |
|  \\    /   O peration     | Version:  2312                                  |
|   \\  /    A nd           | Website:  www.openfoam.com                      |
|    \\/     M anipulation  |                                                 |
\*---------------------------------------------------------------------------*/
FoamFile
{
    version     2.0;
    format      ascii;
    arch        "LSB;label=32;scalar=64";
    class       surfaceVectorField;
    location    "0.15/beam";
    object      M;
}
// * * * * * * * * * * * * * * * * * * * * * * * * * * * * * * * * * * * * * //

dimensions      [1 2 -2 0 0 0 0];

oriented        oriented;

internalField   nonuniform List<vector> 
59
(
(7.963065921e-18 4.295785983e-08 2.443948566e-16)
(1.602677326e-17 8.973358587e-08 4.919268125e-16)
(2.429172998e-17 1.439143077e-07 7.457366169e-16)
(3.285847116e-17 2.086395064e-07 1.008970618e-15)
(4.182719979e-17 2.86410793e-07 1.284773092e-15)
(5.129726603e-17 3.789408124e-07 1.576266591e-15)
(6.136634372e-17 4.870505108e-07 1.886518362e-15)
(7.212927441e-17 6.106201195e-07 2.218491761e-15)
(8.367673766e-17 7.485985113e-07 2.574988019e-15)
(9.609357515e-17 8.990711948e-07 2.958574337e-15)
(1.094569743e-16 1.059381316e-06 3.371506416e-15)
(1.238348413e-16 1.226297525e-06 3.815657961e-15)
(1.392841937e-16 1.396217129e-06 4.292454801e-15)
(1.558496961e-16 1.56539198e-06 4.802820433e-15)
(1.735626098e-16 1.730161451e-06 5.347143787e-15)
(1.924402579e-16 1.887176053e-06 5.925274272e-15)
(2.124859478e-16 2.033596665e-06 6.536543247e-15)
(2.336895855e-16 2.167254392e-06 7.179818338e-15)
(2.560289363e-16 2.286760195e-06 7.853587085e-15)
(2.794711958e-16 2.391556946e-06 8.556056372e-15)
(3.039750749e-16 2.481910927e-06 9.285268722e-15)
(3.294923556e-16 2.558842031e-06 1.003919895e-14)
(3.559724111e-16 2.624013686e-06 1.081592917e-14)
(3.833628664e-16 2.679572249e-06 1.161369494e-14)
(4.116093141e-16 2.727969037e-06 1.243088931e-14)
(4.4065828e-16 2.771792911e-06 1.326614614e-14)
(4.704559943e-16 2.813614703e-06 1.411828907e-14)
(5.009465095e-16 2.855880926e-06 1.498625991e-14)
(5.320683608e-16 2.900868636e-06 1.586901514e-14)
(5.637527384e-16 2.950720779e-06 1.676548951e-14)
(5.959162223e-16 3.007564331e-06 1.767445103e-14)
(6.28449909e-16 3.073711399e-06 1.859431719e-14)
(6.612159461e-16 3.151920525e-06 1.952324521e-14)
(6.940405743e-16 3.245686576e-06 2.045919453e-14)
(7.267015488e-16 3.359495062e-06 2.139988113e-14)
(7.589157504e-16 3.49896532e-06 2.234273703e-14)
(7.903242236e-16 3.670765379e-06 2.328470279e-14)
(8.204740458e-16 3.882182135e-06 2.42217099e-14)
(8.487982438e-16 4.140196527e-06 2.514768986e-14)
(8.74595567e-16 4.449959234e-06 2.605295578e-14)
(8.970162319e-16 4.812590849e-06 2.692188796e-14)
(9.150611052e-16 5.222369594e-06 2.772999173e-14)
(9.276079476e-16 5.663544578e-06 2.844070655e-14)
(9.334777179e-16 6.107268913e-06 2.900265384e-14)
(9.315573495e-16 6.509516039e-06 2.934858313e-14)
(9.209866647e-16 6.811079941e-06 2.939755533e-14)
(9.014096372e-16 6.941119255e-06 2.906238093e-14)
(8.732675971e-16 6.825442238e-06 2.82638405e-14)
(8.380865594e-16 6.400396795e-06 2.695248796e-14)
(7.986782574e-16 5.631643455e-06 2.513631227e-14)
(7.591356149e-16 4.535155744e-06 2.290913613e-14)
(7.244797411e-16 3.194751874e-06 2.046972992e-14)
(6.997839351e-16 1.7676237e-06 1.811635345e-14)
(6.886148215e-16 4.681811739e-07 1.619874076e-14)
(6.906206481e-16 -4.77476854e-07 1.501018831e-14)
(6.980785586e-16 -9.047530768e-07 1.461283704e-14)
(6.909952272e-16 -7.945448444e-07 1.460485661e-14)
(6.296496128e-16 -3.318671214e-07 1.385284399e-14)
(4.419508854e-16 1.019786894e-07 1.019497837e-14)
)
;

boundaryField
{
    left
    {
        type            calculated;
        value           uniform (-2.633935243e-34 1.343393182e-33 1.377759911e-36);
    }
    right
    {
        type            calculated;
        value           uniform (6.761220756e-34 -1.846956927e-32 4.249439826e-36);
    }
    beam
    {
        type            empty;
        value           nonuniform List<vector> 0();
    }
}


// ************************************************************************* //
