/*--------------------------------*- C++ -*----------------------------------*\
| =========                 |                                                 |
| \\      /  F ield         | OpenFOAM: The Open Source CFD Toolbox           |
|  \\    /   O peration     | Version:  2312                                  |
|   \\  /    A nd           | Website:  www.openfoam.com                      |
|    \\/     M anipulation  |                                                 |
\*---------------------------------------------------------------------------*/
FoamFile
{
    version     2.0;
    format      ascii;
    arch        "LSB;label=32;scalar=64";
    class       pointVectorField;
    location    "0.15/beam";
    object      pointW;
}
// * * * * * * * * * * * * * * * * * * * * * * * * * * * * * * * * * * * * * //

dimensions      [0 1 0 0 0 0 0];

internalField   nonuniform List<vector> 
1952
(
(-0.0001308920922 3.020766359e-16 2.142162418e-06)
(-0.0001283770007 2.963124537e-16 2.101000767e-06)
(-0.0001209285862 2.790736392e-16 1.979101014e-06)
(-0.0001088328479 2.511012231e-16 1.781143785e-06)
(-9.255478012e-05 2.138046684e-16 1.514739112e-06)
(-7.271971969e-05 1.678344963e-16 1.190121174e-06)
(-5.009011309e-05 1.15792792e-16 8.197680691e-07)
(-2.5535771e-05 5.898059818e-17 4.179150013e-07)
(2.107881788e-15 0 -3.712518815e-16)
(2.5535771e-05 -5.898059818e-17 -4.17915002e-07)
(5.009011309e-05 -1.15792792e-16 -8.197680698e-07)
(7.271971969e-05 -1.678344963e-16 -1.190121175e-06)
(9.255478012e-05 -2.138046684e-16 -1.514739112e-06)
(0.0001088328479 -2.511012231e-16 -1.781143786e-06)
(0.0001209285862 -2.790736392e-16 -1.979101015e-06)
(0.0001283770007 -2.963124537e-16 -2.101000767e-06)
(0.0001308920922 -3.020766359e-16 -2.142162418e-06)
(0.0001283770007 -2.963124537e-16 -2.101000767e-06)
(0.0001209285862 -2.790736392e-16 -1.979101014e-06)
(0.0001088328479 -2.511012231e-16 -1.781143785e-06)
(9.255478012e-05 -2.138046684e-16 -1.514739112e-06)
(7.271971969e-05 -1.678344963e-16 -1.190121174e-06)
(5.009011309e-05 -1.15792792e-16 -8.197680691e-07)
(2.5535771e-05 -5.898059818e-17 -4.179150013e-07)
(-2.107869372e-15 0 3.712516783e-16)
(-2.5535771e-05 5.898059818e-17 4.17915002e-07)
(-5.009011309e-05 1.15792792e-16 8.197680698e-07)
(-7.271971969e-05 1.678344963e-16 1.190121175e-06)
(-9.255478012e-05 2.138046684e-16 1.514739112e-06)
(-0.0001088328479 2.511012231e-16 1.781143786e-06)
(-0.0001209285862 2.790736392e-16 1.979101015e-06)
(-0.0001283770007 2.963124537e-16 2.101000767e-06)
(-0.0001235795579 2.496941233e-14 -0.001447720073)
(-0.0001210643452 2.49636466e-14 -0.001447761239)
(-0.000113615572 2.494640779e-14 -0.001447883151)
(-0.0001015192513 2.491843537e-14 -0.001448081127)
(-8.524039963e-05 2.488113882e-14 -0.001448347557)
(-6.540438406e-05 2.483516864e-14 -0.001448672206)
(-4.277368775e-05 2.478312694e-14 -0.001449042595)
(-1.821816327e-05 2.472588106e-14 -0.001449444487)
(7.318837388e-06 2.466690047e-14 -0.001449862442)
(3.285583804e-05 2.460791987e-14 -0.001450280398)
(5.741136253e-05 2.455154136e-14 -0.00145068229)
(8.004205883e-05 2.449949965e-14 -0.001451052678)
(9.98780744e-05 2.445352948e-14 -0.001451377328)
(0.0001161569261 2.441623292e-14 -0.001451643758)
(0.0001282532468 2.438826051e-14 -0.001451841734)
(0.00013570202 2.437102169e-14 -0.001451963646)
(0.0001382172326 2.436526531e-14 -0.001452004811)
(0.00013570202 2.437102169e-14 -0.001451963646)
(0.0001282532468 2.438826051e-14 -0.001451841734)
(0.0001161569261 2.441623292e-14 -0.001451643758)
(9.98780744e-05 2.445352948e-14 -0.001451377328)
(8.004205883e-05 2.449949965e-14 -0.001451052678)
(5.741136252e-05 2.455154136e-14 -0.00145068229)
(3.285583804e-05 2.460791987e-14 -0.001450280398)
(7.318837384e-06 2.466690047e-14 -0.001449862442)
(-1.821816327e-05 2.472588106e-14 -0.001449444487)
(-4.277368775e-05 2.478312694e-14 -0.001449042595)
(-6.540438406e-05 2.483516864e-14 -0.001448672206)
(-8.524039963e-05 2.488113882e-14 -0.001448347557)
(-0.0001015192513 2.491843537e-14 -0.001448081127)
(-0.000113615572 2.494640779e-14 -0.001447883151)
(-0.0001210643452 2.49636466e-14 -0.001447761239)
(-0.0001162849226 4.943451616e-14 -0.002897724583)
(-0.0001137693358 4.942866862e-14 -0.002897765761)
(-0.0001063194547 4.941164665e-14 -0.002897887709)
(-9.422133489e-05 4.938367423e-14 -0.002898085744)
(-7.794006199e-05 4.934637768e-14 -0.002898352254)
(-5.810109612e-05 4.930040751e-14 -0.002898677)
(-3.546703385e-05 4.92483658e-14 -0.002899047499)
(-1.090785711e-05 4.919068625e-14 -0.00289944951)
(1.463294177e-05 4.913170565e-14 -0.00289986759)
(4.017374065e-05 4.907272505e-14 -0.00290028567)
(6.473291739e-05 4.901678022e-14 -0.002900687681)
(8.736697965e-05 4.896473851e-14 -0.00290105818)
(0.0001072059455 4.891876834e-14 -0.002901382926)
(0.0001234872184 4.888147179e-14 -0.002901649436)
(0.0001355853383 4.885349937e-14 -0.002901847471)
(0.0001430352193 4.883604372e-14 -0.002901969419)
(0.0001455508061 4.883038959e-14 -0.002902010597)
(0.0001430352193 4.883604372e-14 -0.002901969419)
(0.0001355853383 4.885349937e-14 -0.002901847471)
(0.0001234872184 4.888147179e-14 -0.002901649436)
(0.0001072059455 4.891876834e-14 -0.002901382926)
(8.736697965e-05 4.896473851e-14 -0.00290105818)
(6.473291738e-05 4.901678022e-14 -0.002900687681)
(4.017374065e-05 4.907272505e-14 -0.00290028567)
(1.463294176e-05 4.913170565e-14 -0.00289986759)
(-1.090785712e-05 4.919068625e-14 -0.00289944951)
(-3.546703385e-05 4.92483658e-14 -0.002899047499)
(-5.810109612e-05 4.930040751e-14 -0.002898677)
(-7.794006199e-05 4.934637768e-14 -0.002898352254)
(-9.422133489e-05 4.938367423e-14 -0.002898085744)
(-0.0001063194547 4.941164665e-14 -0.002897887709)
(-0.0001137693358 4.942866862e-14 -0.002897765761)
(-0.0001090149698 7.550535563e-14 -0.004348026243)
(-0.0001064987243 7.549950248e-14 -0.004348067442)
(-9.904689237e-05 7.548237209e-14 -0.004348189454)
(-8.694560451e-05 7.545439967e-14 -0.004348387593)
(-7.06600682e-05 7.541666944e-14 -0.004348654242)
(-5.081590731e-05 7.537113295e-14 -0.004348979158)
(-2.817591809e-05 7.531909124e-14 -0.004349349852)
(-3.610310302e-06 7.526184537e-14 -0.004349752074)
(2.193717668e-05 7.520286477e-14 -0.004350170373)
(4.748466367e-05 7.514388417e-14 -0.004350588671)
(7.205027146e-05 7.508750566e-14 -0.004350990893)
(9.469026068e-05 7.503546395e-14 -0.004351361587)
(0.0001145344216 7.498992746e-14 -0.004351686503)
(0.0001308199579 7.495219723e-14 -0.004351953152)
(0.0001429212457 7.492422481e-14 -0.004352151291)
(0.0001503730776 7.490709442e-14 -0.004352273303)
(0.0001528893231 7.490126811e-14 -0.004352314502)
(0.0001503730776 7.490709442e-14 -0.004352273303)
(0.0001429212457 7.492422481e-14 -0.004352151291)
(0.0001308199579 7.495219723e-14 -0.004351953152)
(0.0001145344216 7.498992746e-14 -0.004351686503)
(9.469026068e-05 7.503546395e-14 -0.004351361587)
(7.205027146e-05 7.508750566e-14 -0.004350990893)
(4.748466367e-05 7.514388417e-14 -0.004350588671)
(2.193717668e-05 7.520286477e-14 -0.004350170373)
(-3.610310307e-06 7.526184537e-14 -0.004349752074)
(-2.81759181e-05 7.531909124e-14 -0.004349349852)
(-5.081590732e-05 7.537113295e-14 -0.004348979158)
(-7.066006821e-05 7.541666944e-14 -0.004348654242)
(-8.694560452e-05 7.545439967e-14 -0.004348387593)
(-9.904689237e-05 7.548237209e-14 -0.004348189454)
(-0.0001064987243 7.549950248e-14 -0.004348067442)
(-0.0001017782481 1.040103255e-13 -0.005798803604)
(-9.926100868e-05 1.040044786e-13 -0.005798844836)
(-9.180623316e-05 1.039875651e-13 -0.005798966944)
(-7.970016507e-05 1.039593758e-13 -0.00579916524)
(-6.340819565e-05 1.039216456e-13 -0.0057994321)
(-4.355619593e-05 1.038761091e-13 -0.005799757273)
(-2.090726348e-05 1.038236337e-13 -0.005800128259)
(3.668048208e-06 1.037668215e-13 -0.005800530799)
(2.922562695e-05 1.037078409e-13 -0.005800949429)
(5.478320569e-05 1.036488603e-13 -0.005801368058)
(7.935851737e-05 1.035929155e-13 -0.005801770598)
(0.0001020074498 1.035404401e-13 -0.005802141585)
(0.0001218594495 1.034949036e-13 -0.005802466758)
(0.000138151419 1.034571734e-13 -0.005802733618)
(0.0001502574871 1.034294178e-13 -0.005802931913)
(0.0001577122626 1.034120706e-13 -0.005803054022)
(0.000160229502 1.034063032e-13 -0.005803095254)
(0.0001577122626 1.034120706e-13 -0.005803054022)
(0.0001502574871 1.034294178e-13 -0.005802931913)
(0.000138151419 1.034571734e-13 -0.005802733618)
(0.0001218594495 1.034949036e-13 -0.005802466758)
(0.0001020074498 1.035404401e-13 -0.005802141585)
(7.935851737e-05 1.035929155e-13 -0.005801770598)
(5.478320568e-05 1.036488603e-13 -0.005801368058)
(2.922562694e-05 1.037078409e-13 -0.005800949429)
(3.668048202e-06 1.037668215e-13 -0.005800530799)
(-2.090726348e-05 1.038236337e-13 -0.005800128259)
(-4.355619594e-05 1.038761091e-13 -0.005799757273)
(-6.340819566e-05 1.039216456e-13 -0.0057994321)
(-7.970016507e-05 1.039593758e-13 -0.00579916524)
(-9.180623317e-05 1.039875651e-13 -0.005798966944)
(-9.926100868e-05 1.040044786e-13 -0.005798844836)
(-9.458524383e-05 1.358084838e-13 -0.007250268949)
(-9.206660867e-05 1.358027189e-13 -0.007250310227)
(-8.460769979e-05 1.357854801e-13 -0.007250432471)
(-7.249491939e-05 1.357577245e-13 -0.007250630986)
(-5.619391676e-05 1.357199943e-13 -0.007250898143)
(-3.633090994e-05 1.356744578e-13 -0.007251223676)
(-1.366941961e-05 1.356219824e-13 -0.007251595074)
(1.091951806e-05 1.355660376e-13 -0.007251998061)
(3.64912674e-05 1.35507057e-13 -0.007252417155)
(6.206301675e-05 1.354480764e-13 -0.007252836249)
(8.665195441e-05 1.353912642e-13 -0.007253239236)
(0.0001093134447 1.353387888e-13 -0.007253610634)
(0.0001291764516 1.352932523e-13 -0.007253936167)
(0.0001454774542 1.352555221e-13 -0.007254203324)
(0.0001575902346 1.352273328e-13 -0.007254401839)
(0.0001650491435 1.352103108e-13 -0.007254524083)
(0.0001675677786 1.352045646e-13 -0.007254565361)
(0.0001650491435 1.352103108e-13 -0.007254524083)
(0.0001575902346 1.352273328e-13 -0.007254401839)
(0.0001454774542 1.352555221e-13 -0.007254203324)
(0.0001291764516 1.352932523e-13 -0.007253936167)
(0.0001093134447 1.353387888e-13 -0.007253610634)
(8.665195441e-05 1.353912642e-13 -0.007253239236)
(6.206301674e-05 1.354480764e-13 -0.007252836249)
(3.64912674e-05 1.35507057e-13 -0.007252417155)
(1.091951805e-05 1.355660376e-13 -0.007251998061)
(-1.366941961e-05 1.356219824e-13 -0.007251595074)
(-3.633090995e-05 1.356744578e-13 -0.007251223676)
(-5.619391677e-05 1.357199943e-13 -0.007250898143)
(-7.249491939e-05 1.357577245e-13 -0.007250630986)
(-8.46076998e-05 1.357854801e-13 -0.007250432471)
(-9.206660867e-05 1.358027189e-13 -0.007250310227)
(-8.744843906e-05 1.717997688e-13 -0.008702676307)
(-8.492792806e-05 1.717940026e-13 -0.008702717646)
(-7.746346393e-05 1.717768722e-13 -0.008702840072)
(-6.534166214e-05 1.717488998e-13 -0.008703038884)
(-4.902851881e-05 1.717111696e-13 -0.008703306438)
(-2.915071837e-05 1.716656331e-13 -0.008703632457)
(-6.472350159e-06 1.716131577e-13 -0.008704004409)
(1.813490091e-05 1.715572129e-13 -0.008704407996)
(4.372569565e-05 1.714982323e-13 -0.008704827715)
(6.931649038e-05 1.714392517e-13 -0.008705247434)
(9.392374145e-05 1.713824395e-13 -0.008705651021)
(0.0001166021097 1.713299641e-13 -0.008706022973)
(0.0001364799101 1.712844276e-13 -0.008706348992)
(0.0001527930534 1.712466974e-13 -0.008706616546)
(0.0001649148552 1.712191586e-13 -0.008706815358)
(0.0001723793193 1.712018114e-13 -0.008706937784)
(0.0001748998303 1.711960075e-13 -0.008706979123)
(0.0001723793193 1.712018114e-13 -0.008706937784)
(0.0001649148552 1.712191586e-13 -0.008706815358)
(0.0001527930534 1.712466974e-13 -0.008706616546)
(0.0001364799101 1.712844276e-13 -0.008706348992)
(0.0001166021097 1.713299641e-13 -0.008706022973)
(9.392374144e-05 1.713824395e-13 -0.008705651021)
(6.931649037e-05 1.714392517e-13 -0.008705247434)
(4.372569564e-05 1.714982323e-13 -0.008704827715)
(1.813490091e-05 1.715572129e-13 -0.008704407996)
(-6.472350165e-06 1.716131577e-13 -0.008704004409)
(-2.915071838e-05 1.716656331e-13 -0.008703632457)
(-4.902851882e-05 1.717111696e-13 -0.008703306438)
(-6.534166214e-05 1.717488998e-13 -0.008703038884)
(-7.746346393e-05 1.717768722e-13 -0.008702840072)
(-8.492792806e-05 1.717940026e-13 -0.008702717646)
(-8.038225226e-05 2.129351309e-13 -0.01015632695)
(-7.785929976e-05 2.129292836e-13 -0.01015636837)
(-7.038760512e-05 2.1291237e-13 -0.01015649103)
(-5.825406148e-05 2.128843976e-13 -0.01015669023)
(-4.192511633e-05 2.128466674e-13 -0.0101569583)
(-2.202806114e-05 2.128011309e-13 -0.01015728495)
(6.722746118e-07 2.127486555e-13 -0.01015765763)
(2.530336164e-05 2.126927107e-13 -0.010158062)
(5.091894505e-05 2.126337301e-13 -0.01015848253)
(7.653452846e-05 2.125747495e-13 -0.01015890306)
(0.0001011656155 2.125179373e-13 -0.01015930743)
(0.0001238659512 2.124654619e-13 -0.0101596801)
(0.0001437630064 2.124199254e-13 -0.01016000676)
(0.0001600919516 2.123821952e-13 -0.01016027483)
(0.0001722254952 2.123546564e-13 -0.01016047403)
(0.0001796971899 2.123373092e-13 -0.01016059669)
(0.0001822201424 2.123316059e-13 -0.01016063811)
(0.0001796971899 2.123373092e-13 -0.01016059669)
(0.0001722254952 2.123546564e-13 -0.01016047403)
(0.0001600919516 2.123821952e-13 -0.01016027483)
(0.0001437630064 2.124199254e-13 -0.01016000676)
(0.0001238659512 2.124654619e-13 -0.0101596801)
(0.0001011656155 2.125179373e-13 -0.01015930743)
(7.653452845e-05 2.125747495e-13 -0.01015890306)
(5.091894504e-05 2.126337301e-13 -0.01015848253)
(2.530336164e-05 2.126927107e-13 -0.010158062)
(6.722746045e-07 2.127486555e-13 -0.01015765763)
(-2.202806115e-05 2.128011309e-13 -0.01015728495)
(-4.192511633e-05 2.128466674e-13 -0.0101569583)
(-5.825406148e-05 2.128843976e-13 -0.01015669023)
(-7.038760513e-05 2.1291237e-13 -0.01015649103)
(-7.785929976e-05 2.129292836e-13 -0.01015636837)
(-7.340286447e-05 2.602264631e-13 -0.01161157203)
(-7.087681728e-05 2.602206645e-13 -0.01161161355)
(-6.33959578e-05 2.602035341e-13 -0.01161173651)
(-5.124753105e-05 2.601755617e-13 -0.0116119362)
(-3.489855667e-05 2.601382651e-13 -0.01161220493)
(-1.497709558e-05 2.600922949e-13 -0.01161253238)
(7.751084605e-06 2.600402532e-13 -0.01161290597)
(3.241238434e-05 2.599838747e-13 -0.01161331133)
(5.805938805e-05 2.599248941e-13 -0.0116137329)
(8.370639176e-05 2.598659135e-13 -0.01161415446)
(0.0001083676915 2.59809535e-13 -0.01161455983)
(0.0001310958717 2.597574933e-13 -0.01161493341)
(0.0001510173328 2.597115231e-13 -0.01161526087)
(0.0001673663072 2.596742266e-13 -0.0116155296)
(0.0001795147339 2.596462541e-13 -0.01161572929)
(0.0001869955934 2.596291238e-13 -0.01161585225)
(0.0001895216406 2.596232832e-13 -0.01161589377)
(0.0001869955934 2.596291238e-13 -0.01161585225)
(0.0001795147339 2.596462541e-13 -0.01161572929)
(0.0001673663071 2.596742266e-13 -0.0116155296)
(0.0001510173328 2.597115231e-13 -0.01161526087)
(0.0001310958717 2.597574933e-13 -0.01161493341)
(0.0001083676915 2.59809535e-13 -0.01161455983)
(8.370639175e-05 2.598659135e-13 -0.01161415446)
(5.805938804e-05 2.599248941e-13 -0.0116137329)
(3.241238434e-05 2.599838747e-13 -0.01161331133)
(7.751084597e-06 2.600402532e-13 -0.01161290597)
(-1.497709558e-05 2.600922949e-13 -0.01161253238)
(-3.489855667e-05 2.601382651e-13 -0.01161220493)
(-5.124753105e-05 2.601755617e-13 -0.0116119362)
(-6.339595781e-05 2.602035341e-13 -0.01161173651)
(-7.087681729e-05 2.602206645e-13 -0.01161161355)
(-6.652794841e-05 3.147562138e-13 -0.01306881218)
(-6.399806917e-05 3.147505043e-13 -0.01306885383)
(-5.650586111e-05 3.147332655e-13 -0.01306897717)
(-4.4339005e-05 3.147057268e-13 -0.01306917746)
(-2.796522898e-05 3.146679965e-13 -0.01306944701)
(-8.013546718e-06 3.1462246e-13 -0.01306977546)
(1.474911247e-05 3.145704183e-13 -0.01307015018)
(3.944782378e-05 3.145140398e-13 -0.01307055677)
(6.513373439e-05 3.144550592e-13 -0.01307097962)
(9.081964501e-05 3.143960786e-13 -0.01307140246)
(0.0001155183563 3.143397001e-13 -0.01307180906)
(0.0001382810155 3.142876584e-13 -0.01307218378)
(0.0001582326978 3.142421219e-13 -0.01307251223)
(0.0001746064738 3.142043917e-13 -0.01307278178)
(0.0001867733299 3.141764193e-13 -0.01307298207)
(0.000194265538 3.141593973e-13 -0.01307310541)
(0.0001967954172 3.141535274e-13 -0.01307314705)
(0.0001942655379 3.141593973e-13 -0.01307310541)
(0.0001867733299 3.141764193e-13 -0.01307298207)
(0.0001746064738 3.142043917e-13 -0.01307278178)
(0.0001582326978 3.142421219e-13 -0.01307251223)
(0.0001382810155 3.142876584e-13 -0.01307218378)
(0.0001155183563 3.143397001e-13 -0.01307180906)
(9.0819645e-05 3.143960786e-13 -0.01307140246)
(6.513373438e-05 3.144550592e-13 -0.01307097962)
(3.944782377e-05 3.145140398e-13 -0.01307055677)
(1.474911246e-05 3.145704183e-13 -0.01307015018)
(-8.013546727e-06 3.1462246e-13 -0.01306977546)
(-2.796522898e-05 3.146679965e-13 -0.01306944701)
(-4.433900501e-05 3.147057268e-13 -0.01306917746)
(-5.650586111e-05 3.147332655e-13 -0.01306897717)
(-6.399806917e-05 3.147505043e-13 -0.01306885383)
(-5.97763126e-05 3.776864229e-13 -0.01452849422)
(-5.724178809e-05 3.776806342e-13 -0.01452853602)
(-4.973582308e-05 3.776633953e-13 -0.01452865981)
(-3.754662658e-05 3.776354229e-13 -0.01452886084)
(-2.114278556e-05 3.775981264e-13 -0.01452913138)
(-1.154468674e-06 3.775525899e-13 -0.01452946104)
(2.164998656e-05 3.775005482e-13 -0.01452983714)
(4.639404885e-05 3.774446033e-13 -0.01453024523)
(7.212712309e-05 3.773856228e-13 -0.01453066963)
(9.786019734e-05 3.773266422e-13 -0.01453109403)
(0.0001226042596 3.7726983e-13 -0.01453150212)
(0.0001454087149 3.772177883e-13 -0.01453187822)
(0.0001653970317 3.771722518e-13 -0.01453220787)
(0.0001818008728 3.771349552e-13 -0.01453247841)
(0.0001939900693 3.771074165e-13 -0.01453267944)
(0.0002014960343 3.770901777e-13 -0.01453280323)
(0.0002040305588 3.770844269e-13 -0.01453284503)
(0.0002014960343 3.770901777e-13 -0.01453280323)
(0.0001939900693 3.771074165e-13 -0.01453267944)
(0.0001818008728 3.771349552e-13 -0.01453247841)
(0.0001653970317 3.771722518e-13 -0.01453220787)
(0.0001454087148 3.772177883e-13 -0.01453187822)
(0.0001226042596 3.7726983e-13 -0.01453150212)
(9.786019733e-05 3.773266422e-13 -0.01453109403)
(7.212712308e-05 3.773856228e-13 -0.01453066963)
(4.639404884e-05 3.774446033e-13 -0.01453024523)
(2.164998655e-05 3.775005482e-13 -0.01452983714)
(-1.154468684e-06 3.775525899e-13 -0.01452946104)
(-2.114278557e-05 3.775981264e-13 -0.01452913138)
(-3.754662659e-05 3.776354229e-13 -0.01452886084)
(-4.973582308e-05 3.776633953e-13 -0.01452865981)
(-5.724178809e-05 3.776806342e-13 -0.01452853602)
(-5.316748485e-05 4.502669887e-13 -0.01599110497)
(-5.062743887e-05 4.502612476e-13 -0.01599114695)
(-4.310512213e-05 4.502440087e-13 -0.01599127129)
(-3.088937148e-05 4.502162532e-13 -0.01599147319)
(-1.444979471e-05 4.501789566e-13 -0.01599174491)
(5.582066703e-06 4.501334201e-13 -0.015992076)
(2.843620142e-05 4.500813784e-13 -0.01599245375)
(5.323416862e-05 4.500254336e-13 -0.01599286362)
(7.902330234e-05 4.49966453e-13 -0.01599328987)
(0.0001048124361 4.499074724e-13 -0.01599371612)
(0.0001296104033 4.498515276e-13 -0.01599412599)
(0.000152464538 4.497994859e-13 -0.01599450373)
(0.0001724963994 4.497539494e-13 -0.01599483482)
(0.0001889359762 4.497166528e-13 -0.01599510654)
(0.0002011517268 4.496888972e-13 -0.01599530845)
(0.0002086740435 4.496716584e-13 -0.01599543278)
(0.0002112140895 4.496659389e-13 -0.01599547476)
(0.0002086740435 4.496716584e-13 -0.01599543278)
(0.0002011517268 4.496888972e-13 -0.01599530845)
(0.0001889359761 4.497166528e-13 -0.01599510654)
(0.0001724963994 4.497539494e-13 -0.01599483482)
(0.000152464538 4.497994859e-13 -0.01599450373)
(0.0001296104032 4.498515276e-13 -0.01599412599)
(0.000104812436 4.499074724e-13 -0.01599371612)
(7.902330232e-05 4.49966453e-13 -0.01599328987)
(5.323416861e-05 4.500254336e-13 -0.01599286362)
(2.843620141e-05 4.500813784e-13 -0.01599245375)
(5.582066691e-06 4.501334201e-13 -0.015992076)
(-1.444979472e-05 4.501789566e-13 -0.01599174491)
(-3.088937149e-05 4.502162532e-13 -0.01599147319)
(-4.310512213e-05 4.502440087e-13 -0.01599127129)
(-5.062743888e-05 4.502612476e-13 -0.01599114695)
(-4.672126483e-05 5.338429911e-13 -0.0174571628)
(-4.417477486e-05 5.338372973e-13 -0.01745720499)
(-3.663337428e-05 5.338201669e-13 -0.01745732996)
(-2.438663275e-05 5.337926282e-13 -0.01745753289)
(-7.905349399e-06 5.337553316e-13 -0.01745780599)
(1.217733208e-05 5.337097951e-13 -0.01745813877)
(3.508944686e-05 5.336581871e-13 -0.01745851843)
(5.995032555e-05 5.336009412e-13 -0.01745893038)
(8.580488531e-05 5.33542828e-13 -0.0174593588)
(0.0001116594451 5.334847147e-13 -0.01745978722)
(0.0001365203238 5.334283362e-13 -0.01746019917)
(0.0001594324385 5.333767282e-13 -0.01746057883)
(0.00017951512 5.333311917e-13 -0.0174609116)
(0.0001959964034 5.332938952e-13 -0.0174611847)
(0.0002082431449 5.332659227e-13 -0.01746138764)
(0.0002157845455 5.332490092e-13 -0.0174615126)
(0.0002183310354 5.332432118e-13 -0.0174615548)
(0.0002157845455 5.332490092e-13 -0.0174615126)
(0.0002082431449 5.332659227e-13 -0.01746138764)
(0.0001959964033 5.332938952e-13 -0.0174611847)
(0.00017951512 5.333311917e-13 -0.0174609116)
(0.0001594324385 5.333767282e-13 -0.01746057883)
(0.0001365203237 5.334283362e-13 -0.01746019917)
(0.0001116594451 5.334847147e-13 -0.01745978722)
(8.580488529e-05 5.33542828e-13 -0.0174593588)
(5.995032553e-05 5.336009412e-13 -0.01745893038)
(3.508944685e-05 5.336581871e-13 -0.01745851843)
(1.217733206e-05 5.337097951e-13 -0.01745813877)
(-7.90534941e-06 5.337553316e-13 -0.01745780599)
(-2.438663276e-05 5.337926282e-13 -0.01745753289)
(-3.663337429e-05 5.338201669e-13 -0.01745732996)
(-4.417477486e-05 5.338372973e-13 -0.01745720499)
(-4.045726675e-05 6.298607471e-13 -0.01892720727)
(-3.790338316e-05 6.298550006e-13 -0.01892724971)
(-3.034008651e-05 6.298379786e-13 -0.0189273754)
(-1.805778718e-05 6.298104399e-13 -0.01892757951)
(-1.528651251e-06 6.29773577e-13 -0.0189278542)
(1.861233928e-05 6.297280405e-13 -0.01892818891)
(4.159097824e-05 6.296764325e-13 -0.01892857078)
(6.652403924e-05 6.296196203e-13 -0.01892898513)
(9.245366642e-05 6.295615071e-13 -0.01892941604)
(0.0001183832936 6.295033939e-13 -0.01892984695)
(0.0001433163546 6.29447449e-13 -0.0189302613)
(0.0001662949936 6.29395841e-13 -0.01893064317)
(0.0001864359841 6.293503045e-13 -0.01893097788)
(0.00020296512 6.293134416e-13 -0.01893125257)
(0.0002152474193 6.292854692e-13 -0.01893145668)
(0.000222810716 6.292684472e-13 -0.01893158237)
(0.0002253645996 6.292626412e-13 -0.01893162482)
(0.000222810716 6.292684472e-13 -0.01893158237)
(0.0002152474193 6.292854692e-13 -0.01893145668)
(0.00020296512 6.293134416e-13 -0.01893125257)
(0.0001864359841 6.293503045e-13 -0.01893097788)
(0.0001662949935 6.29395841e-13 -0.01893064317)
(0.0001433163546 6.29447449e-13 -0.0189302613)
(0.0001183832936 6.295033939e-13 -0.01892984695)
(9.24536664e-05 6.295615071e-13 -0.01892941604)
(6.652403922e-05 6.296196203e-13 -0.01892898513)
(4.159097822e-05 6.296764325e-13 -0.01892857078)
(1.861233927e-05 6.297280405e-13 -0.01892818891)
(-1.528651264e-06 6.29773577e-13 -0.0189278542)
(-1.805778719e-05 6.298104399e-13 -0.01892757951)
(-3.034008652e-05 6.298379786e-13 -0.0189273754)
(-3.790338317e-05 6.298550006e-13 -0.01892724971)
(-3.43944895e-05 7.398723893e-13 -0.02040178762)
(-3.183225633e-05 7.398666098e-13 -0.02040183034)
(-2.424423248e-05 7.398498047e-13 -0.02040195685)
(-1.192177779e-05 7.398222659e-13 -0.0204021623)
(4.661397971e-06 7.397854031e-13 -0.02040243879)
(2.486823682e-05 7.397403003e-13 -0.0204027757)
(4.79220014e-05 7.396886922e-13 -0.02040316007)
(7.293657776e-05 7.396323137e-13 -0.02040357713)
(9.895097844e-05 7.395742005e-13 -0.02040401086)
(0.0001249653791 7.395160873e-13 -0.0204044446)
(0.0001499799555 7.394605761e-13 -0.02040486166)
(0.00017303372 7.394089681e-13 -0.02040524603)
(0.0001932405589 7.393638653e-13 -0.02040558294)
(0.0002098237346 7.393270024e-13 -0.02040585942)
(0.0002221461893 7.3929903e-13 -0.02040606487)
(0.0002297342132 7.392822248e-13 -0.02040619139)
(0.0002322964464 7.392764467e-13 -0.02040623411)
(0.0002297342132 7.392822248e-13 -0.02040619139)
(0.0002221461893 7.3929903e-13 -0.02040606487)
(0.0002098237346 7.393270024e-13 -0.02040585942)
(0.0001932405589 7.393638653e-13 -0.02040558294)
(0.00017303372 7.394089681e-13 -0.02040524603)
(0.0001499799554 7.394605761e-13 -0.02040486166)
(0.0001249653791 7.395160873e-13 -0.0204044446)
(9.895097841e-05 7.395742005e-13 -0.02040401086)
(7.293657774e-05 7.396323137e-13 -0.02040357713)
(4.792200139e-05 7.396886922e-13 -0.02040316007)
(2.48682368e-05 7.397403003e-13 -0.0204027757)
(4.661397956e-06 7.397854031e-13 -0.02040243879)
(-1.19217778e-05 7.398222659e-13 -0.0204021623)
(-2.424423249e-05 7.398498047e-13 -0.02040195685)
(-3.183225634e-05 7.398666098e-13 -0.02040183034)
(-2.855092853e-05 8.655388402e-13 -0.02188145077)
(-2.597940434e-05 8.655331226e-13 -0.0218814938)
(-1.836386523e-05 8.655164259e-13 -0.02188162123)
(-5.996727551e-06 8.654886703e-13 -0.02188182817)
(1.064658117e-05 8.654518074e-13 -0.02188210667)
(3.092669291e-05 8.654067046e-13 -0.02188244603)
(5.406405374e-05 8.653555303e-13 -0.02188283319)
(7.916933653e-05 8.653000191e-13 -0.02188325328)
(0.0001052780691 8.652419059e-13 -0.02188369017)
(0.0001313868017 8.651837927e-13 -0.02188412705)
(0.0001564920845 8.651282815e-13 -0.02188454715)
(0.0001796294454 8.650771072e-13 -0.02188493431)
(0.0001999095571 8.650320044e-13 -0.02188527367)
(0.0002165528658 8.649951415e-13 -0.02188555216)
(0.0002289200035 8.649682533e-13 -0.02188575911)
(0.0002365355426 8.649513397e-13 -0.02188588654)
(0.0002391070668 8.649456453e-13 -0.02188592957)
(0.0002365355426 8.649513397e-13 -0.02188588654)
(0.0002289200035 8.649682533e-13 -0.02188575911)
(0.0002165528658 8.649951415e-13 -0.02188555216)
(0.0001999095571 8.650320044e-13 -0.02188527367)
(0.0001796294453 8.650771072e-13 -0.02188493431)
(0.0001564920845 8.651282815e-13 -0.02188454715)
(0.0001313868017 8.651837927e-13 -0.02188412705)
(0.0001052780691 8.652419059e-13 -0.02188369017)
(7.91693365e-05 8.653000191e-13 -0.02188325328)
(5.406405372e-05 8.653555303e-13 -0.02188283319)
(3.092669289e-05 8.654067046e-13 -0.02188244603)
(1.064658116e-05 8.654518074e-13 -0.02188210667)
(-5.996727564e-06 8.654886703e-13 -0.02188182817)
(-1.836386524e-05 8.655164259e-13 -0.02188162123)
(-2.597940435e-05 8.655331226e-13 -0.0218814938)
(-2.294326297e-05 1.008631085e-12 -0.02336672959)
(-2.03615406e-05 1.008625475e-12 -0.02336677296)
(-1.27157997e-05 1.008608561e-12 -0.02336690141)
(-2.99616304e-07 1.008581239e-12 -0.02336711)
(1.640969663e-05 1.00854481e-12 -0.02336739071)
(3.677023544e-05 1.008500141e-12 -0.02336773276)
(5.999935467e-05 1.008448967e-12 -0.023368123)
(8.520420025e-05 1.008393022e-12 -0.02336854644)
(0.0001114164751 1.008335776e-12 -0.02336898679)
(0.00013762875 1.00827853e-12 -0.02336942715)
(0.0001628335956 1.008223453e-12 -0.02336985059)
(0.0001860627148 1.008172278e-12 -0.02337024083)
(0.0002064232537 1.008127609e-12 -0.02337058288)
(0.0002231325666 1.00809118e-12 -0.02337086359)
(0.00023554875 1.008063858e-12 -0.02337107218)
(0.0002431944909 1.008046945e-12 -0.02337120062)
(0.0002457762132 1.008041322e-12 -0.023371244)
(0.0002431944909 1.008046945e-12 -0.02337120062)
(0.00023554875 1.008063858e-12 -0.02337107218)
(0.0002231325666 1.00809118e-12 -0.02337086359)
(0.0002064232536 1.008127609e-12 -0.02337058288)
(0.0001860627148 1.008172278e-12 -0.02337024083)
(0.0001628335956 1.008223453e-12 -0.02336985059)
(0.00013762875 1.00827853e-12 -0.02336942715)
(0.0001114164751 1.008335776e-12 -0.02336898679)
(8.520420022e-05 1.008393022e-12 -0.02336854644)
(5.999935464e-05 1.008448967e-12 -0.023368123)
(3.677023542e-05 1.008500141e-12 -0.02336773276)
(1.640969661e-05 1.00854481e-12 -0.02336739071)
(-2.996163193e-07 1.008581239e-12 -0.02336711)
(-1.271579972e-05 1.008608561e-12 -0.02336690141)
(-2.036154061e-05 1.008625475e-12 -0.02336677296)
(-1.758662574e-05 1.171029683e-12 -0.02485813219)
(-1.499384979e-05 1.171023998e-12 -0.02485817594)
(-7.315373821e-06 1.171007302e-12 -0.02485830548)
(5.153969185e-06 1.17097998e-12 -0.02485851586)
(2.193482266e-05 1.17094355e-12 -0.02485879898)
(4.238253465e-05 1.170899315e-12 -0.02485914397)
(6.571110882e-05 1.170848574e-12 -0.02485953756)
(9.102386837e-05 1.170794364e-12 -0.02485996463)
(0.0001173483705 1.170737118e-12 -0.02486040877)
(0.0001436728727 1.170679872e-12 -0.02486085291)
(0.0001689856322 1.170624795e-12 -0.02486127998)
(0.0001923142064 1.170574054e-12 -0.02486167357)
(0.0002127619184 1.170529819e-12 -0.02486201856)
(0.0002295427719 1.17049339e-12 -0.02486230168)
(0.0002420121149 1.170466501e-12 -0.02486251206)
(0.0002496905908 1.170449805e-12 -0.0248626416)
(0.0002522833668 1.170444139e-12 -0.02486268535)
(0.0002496905908 1.170449805e-12 -0.0248626416)
(0.0002420121148 1.170466501e-12 -0.02486251206)
(0.0002295427718 1.17049339e-12 -0.02486230168)
(0.0002127619184 1.170529819e-12 -0.02486201856)
(0.0001923142064 1.170574054e-12 -0.02486167357)
(0.0001689856322 1.170624795e-12 -0.02486127998)
(0.0001436728726 1.170679872e-12 -0.02486085291)
(0.0001173483705 1.170737118e-12 -0.02486040877)
(9.102386834e-05 1.170794364e-12 -0.02485996463)
(6.571110879e-05 1.170848574e-12 -0.02485953756)
(4.238253463e-05 1.170899315e-12 -0.02485914397)
(2.193482264e-05 1.17094355e-12 -0.02485879898)
(5.153969167e-06 1.17097998e-12 -0.02485851586)
(-7.315373833e-06 1.171007302e-12 -0.02485830548)
(-1.499384979e-05 1.171023998e-12 -0.02485817594)
(-1.249447456e-05 1.354722656e-12 -0.0263561328)
(-9.889855472e-06 1.35471712e-12 -0.02635617695)
(-2.176306201e-06 1.35470064e-12 -0.02635630768)
(1.034999356e-05 1.354673752e-12 -0.02635651999)
(2.720749766e-05 1.354637756e-12 -0.0263568057)
(4.774860956e-05 1.354593954e-12 -0.02635715385)
(7.118374266e-05 1.354543647e-12 -0.02635755105)
(9.661212439e-05 1.35448857e-12 -0.02635798203)
(0.0001230568701 1.354432191e-12 -0.02635843023)
(0.0001495016158 1.354375813e-12 -0.02635887844)
(0.0001749299976 1.354321603e-12 -0.02635930942)
(0.0001983651307 1.354271296e-12 -0.02635970661)
(0.0002189062425 1.354227494e-12 -0.02636005476)