/*--------------------------------*- C++ -*----------------------------------*\
| =========                 |                                                 |
| \\      /  F ield         | OpenFOAM: The Open Source CFD Toolbox           |
|  \\    /   O peration     | Version:  2312                                  |
|   \\  /    A nd           | Website:  www.openfoam.com                      |
|    \\/     M anipulation  |                                                 |
\*---------------------------------------------------------------------------*/
FoamFile
{
    version     2.0;
    format      ascii;
    arch        "LSB;label=32;scalar=64";
    class       surfaceVectorField;
    location    "0.15/beam";
    object      Q;
}
// * * * * * * * * * * * * * * * * * * * * * * * * * * * * * * * * * * * * * //

dimensions      [1 1 -2 0 0 0 0];

oriented        oriented;

internalField   nonuniform List<vector> 
59
(
(0.1056886796 5.142839545e-14 -0.003459480877)
(0.1056883467 5.418112866e-14 -0.003459856571)
(0.1056877943 5.88094085e-14 -0.003460539984)
(0.1056870262 6.537405238e-14 -0.003461613364)
(0.1056860477 7.396058534e-14 -0.003463184822)
(0.1056848654 8.467944056e-14 -0.003465381787)
(0.1056834876 9.766597965e-14 -0.003468343308)
(0.1056819238 1.130801875e-13 -0.00347221164)
(0.1056801852 1.31105899e-13 -0.003477123648)
(0.105678284 1.519494321e-13 -0.003483202549)
(0.105676234 1.758375383e-13 -0.003490550531)
(0.1056740498 2.030146293e-13 -0.003499242685)
(0.1056717474 2.337392998e-13 -0.003509322673)
(0.1056693434 2.682802345e-13 -0.003520800375)
(0.1056668551 3.069116536e-13 -0.003533651685)
(0.1056643002 3.499085136e-13 -0.003547820439)
(0.1056616963 3.975417296e-13 -0.003563222337)
(0.1056590611 4.500737101e-13 -0.003579750539)
(0.1056564116 5.077544991e-13 -0.003597282533)
(0.1056537638 5.708187892e-13 -0.003615687757)
(0.1056511326 6.394840078e-13 -0.003634835378)
(0.1056485316 7.139495914e-13 -0.003654601672)
(0.1056459727 7.943880001e-13 -0.003674874129)
(0.105643465 8.809932981e-13 -0.003695568066)
(0.1056410176 9.738783224e-13 -0.003716604359)
(0.1056386356 1.073225762e-12 -0.003737946064)
(0.1056363243 1.17912278e-12 -0.003759560117)
(0.1056340853 1.29174255e-12 -0.003781454093)
(0.1056319208 1.411153855e-12 -0.00380363437)
(0.1056298299 1.537524413e-12 -0.003826142636)
(0.1056278124 1.670903562e-12 -0.003849013266)
(0.1056258655 1.811448127e-12 -0.003872312964)
(0.1056239874 1.959178363e-12 -0.003896100744)
(0.1056221735 2.114229228e-12 -0.003920474589)
(0.1056204196 2.27658186e-12 -0.003945536641)
(0.1056187186 2.446344025e-12 -0.0039714492)
(0.1056170625 2.623458883e-12 -0.003998404214)
(0.105615439 2.80801466e-12 -0.004026686114)
(0.1056138341 2.999925492e-12 -0.004056636711)
(0.1056122286 3.199258611e-12 -0.004088713023)
(0.1056106011 3.405866528e-12 -0.004123425556)
(0.1056089263 3.619701475e-12 -0.00416136682)
(0.1056071802 3.840361018e-12 -0.0042030874)
(0.1056053408 4.06734875e-12 -0.004249064758)
(0.1056033969 4.299503219e-12 -0.004299485023)
(0.1056013523 4.535197947e-12 -0.004354145911)
(0.1055992381 4.771706684e-12 -0.004412166768)
(0.105597117 5.005464267e-12 -0.004471907307)
(0.1055950935 5.231619907e-12 -0.004530763472)
(0.1055933093 5.444696755e-12 -0.004585333657)
(0.1055919363 5.638809333e-12 -0.004631619541)
(0.1055911477 5.80913971e-12 -0.004665740178)
(0.1055910785 5.953130358e-12 -0.00468477737)
(0.1055917718 6.072557117e-12 -0.004687944792)
(0.1055931284 6.174753455e-12 -0.004677533849)
(0.1055948881 6.273232853e-12 -0.004659269534)
(0.1055966671 6.385893196e-12 -0.004641459045)
(0.1055980775 6.531041341e-12 -0.00463253218)
(0.1055988883 6.721267721e-12 -0.004637603788)
)
;

boundaryField
{
    left
    {
        type            calculated;
        value           uniform (-0.1056887909 -6.862304799e-12 0.00345936147);
    }
    right
    {
        type            calculated;
        value           uniform (0.1055991229 1.48614952e-13 -0.004656294761);
    }
    beam
    {
        type            empty;
        value           nonuniform List<vector> 0();
    }
}


// ************************************************************************* //
