/*--------------------------------*- C++ -*----------------------------------*\
| =========                 |                                                 |
| \\      /  F ield         | OpenFOAM: The Open Source CFD Toolbox           |
|  \\    /   O peration     | Version:  2312                                  |
|   \\  /    A nd           | Website:  www.openfoam.com                      |
|    \\/     M anipulation  |                                                 |
\*---------------------------------------------------------------------------*/
FoamFile
{
    version     2.0;
    format      ascii;
    arch        "LSB;label=32;scalar=64";
    class       volVectorField;
    location    "0.15/beam";
    object      Theta;
}
// * * * * * * * * * * * * * * * * * * * * * * * * * * * * * * * * * * * * * //

dimensions      [0 0 0 0 0 0 0];

internalField   nonuniform List<vector> 
60
(
(6.739197342e-14 0.0326860506 7.253831352e-13)
(6.763993265e-14 0.03269149459 7.439725767e-13)
(6.813046371e-14 0.03269900116 7.810514586e-13)
(6.88521454e-14 0.03271130503 8.370571404e-13)
(6.97885435e-14 0.03272786897 9.126475886e-13)
(7.091895625e-14 0.03275043521 1.008702133e-12)
(7.221926794e-14 0.03277961755 1.126321517e-12)
(7.366276268e-14 0.03281684054 1.266822244e-12)
(7.522108847e-14 0.03286307083 1.431734398e-12)
(7.686485618e-14 0.03291946667 1.622787254e-12)
(7.856415626e-14 0.03298688494 1.841893748e-12)
(8.028902724e-14 0.03306608376 2.091132783e-12)
(8.200948638e-14 0.03315752649 2.372720288e-12)
(8.369545619e-14 0.03326144647 2.688977174e-12)
(8.531662621e-14 0.03337778131 3.042295434e-12)
(8.684221824e-14 0.03350621227 3.435100701e-12)
(8.824075605e-14 0.03364616738 3.86981417e-12)
(8.947987515e-14 0.03379687065 4.348815415e-12)
(9.052650548e-14 0.03395738428 4.874415628e-12)
(9.134678297e-14 0.03412667008 5.448824412e-12)
(9.190657012e-14 0.03430364804 6.074135928e-12)
(9.217195917e-14 0.03448725823 6.752320614e-12)
(9.210992382e-14 0.03467650457 7.485175482e-12)
(9.168886561e-14 0.03487054535 8.274508029e-12)
(9.087981923e-14 0.03506866422 9.121895012e-12)
(8.965630543e-14 0.03527033552 1.002886857e-11)
(8.799581127e-14 0.03547522356 1.099688397e-11)
(8.587904299e-14 0.03568318141 1.202735653e-11)
(8.329102757e-14 0.03589424168 1.3121629e-11)
(8.021986693e-14 0.03610860413 1.428104227e-11)
(7.665944254e-14 0.03632662582 1.550688675e-11)
(7.259987719e-14 0.03654881994 1.68003034e-11)
(6.803940364e-14 0.03677586937 1.816242971e-11)
(6.297454117e-14 0.03700865952 1.959428792e-11)
(5.740260849e-14 0.03724833226 2.109672725e-11)
(5.131952997e-14 0.03749635876 2.267045125e-11)
(4.472046049e-14 0.03775462264 2.43159536e-11)
(3.759744924e-14 0.03802549699 2.603348974e-11)
(2.993950194e-14 0.0383118897 2.782297776e-11)
(2.172857095e-14 0.03861722121 2.96838449e-11)
(1.293622262e-14 0.03894528981 3.161474215e-11)
(3.513335222e-15 0.03929997639 3.361309444e-11)
(-6.623746355e-15 0.03968474129 3.56744254e-11)
(-1.761968772e-14 0.04010188964 3.779144427e-11)
(-2.971714681e-14 0.04055160759 3.995291681e-11)
(-4.331403872e-14 0.04103085227 4.214244177e-11)
(-5.903721171e-14 0.04153223059 4.433736456e-11)
(-7.783758696e-14 0.04204315694 4.65082102e-11)
(-1.010904817e-13 0.04254558754 4.861914083e-11)
(-1.306857063e-13 0.04301682706 5.063001269e-11)
(-1.690482808e-13 0.04343162514 5.250053911e-11)
(-2.190146092e-13 0.04376596148 5.419672028e-11)
(-2.834006186e-13 0.04400187195 5.569911337e-11)
(-3.640357079e-13 0.04413309145 5.701155294e-11)
(-4.598795483e-13 0.0441688242 5.816790829e-11)
(-5.637209167e-13 0.04413531966 5.923360912e-11)
(-6.567720787e-13 0.04407015845 6.029874349e-11)
(-7.005322578e-13 0.04401357766 6.1460854e-11)
(-6.258305349e-13 0.04399013792 6.279775201e-11)
(-3.215522331e-13 0.04399991423 6.43301978e-11)
)
;

boundaryField
{
    left
    {
        type            momentBeamRotationNR;
        value           uniform (6.739197342e-14 0.0326860506 7.253831352e-13);
        momentSeries    
{
        file            "$FOAM_CASE/constant/beam/timeVsMoment";
        outOfBounds     clamp;
}
        moment          uniform (0 0 0);
    }
    right
    {
        type            momentBeamRotationNR;
        value           uniform (-3.215522331e-13 0.04399991423 6.43301978e-11);
        momentSeries    
{
        file            "$FOAM_CASE/constant/beam/timeVsMoment";
        outOfBounds     clamp;
}
        moment          uniform (0 0 0);
    }
    beam
    {
        type            empty;
    }
}


// ************************************************************************* //
