/*--------------------------------*- C++ -*----------------------------------*\
| =========                 |                                                 |
| \\      /  F ield         | OpenFOAM: The Open Source CFD Toolbox           |
|  \\    /   O peration     | Version:  2312                                  |
|   \\  /    A nd           | Website:  www.openfoam.com                      |
|    \\/     M anipulation  |                                                 |
\*---------------------------------------------------------------------------*/
FoamFile
{
    version     2.0;
    format      ascii;
    arch        "LSB;label=32;scalar=64";
    class       volVectorField;
    location    "0.15/beam";
    object      W;
}
// * * * * * * * * * * * * * * * * * * * * * * * * * * * * * * * * * * * * * //

dimensions      [0 1 0 0 0 0 0];

internalField   nonuniform List<vector> 
60
(
(3.659997383e-06 1.273426515e-14 -0.0007249137708)
(1.097767739e-05 3.660041248e-14 -0.002174811114)
(1.828820614e-05 6.166449327e-14 -0.003624924066)
(2.558614722e-05 8.874213047e-14 -0.005075416679)
(3.286510667e-05 1.186744982e-13 -0.006526482179)
(4.011742813e-05 1.523385501e-13 -0.007978352131)
(4.733396316e-05 1.906572262e-13 -0.009431303299)
(5.450392694e-05 2.346095106e-13 -0.01088566176)
(6.161484916e-05 2.852402357e-13 -0.01234180404)
(6.865261962e-05 3.436695055e-13 -0.0138001552)
(7.560162655e-05 4.111013443e-13 -0.01526118405)
(8.244497811e-05 4.888315833e-13 -0.01672539568)
(8.91647925e-05 5.782546195e-13 -0.01819332191)
(9.574254033e-05 6.808687688e-13 -0.01966551017)
(0.0001021594165 7.982800672e-13 -0.02114251156)
(0.0001083967217 9.322044184e-13 -0.02262486878)
(0.0001144362285 1.084467988e-12 -0.0241131048)
(0.0001202605125 1.257005834e-12 -0.02560771274)
(0.0001258532277 1.451859046e-12 -0.02710914773)
(0.0001311993123 1.671170436e-12 -0.02861782117)
(0.0001362851123 1.917179107e-12 -0.03013409754)
(0.00014109842 2.192214405e-12 -0.03165829395)
(0.0001456281724 2.498672104e-12 -0.03319059564)
(0.0001498653822 2.83907336e-12 -0.03473140561)
(0.0001538012806 3.215970566e-12 -0.03628083535)
(0.0001574283369 3.631982779e-12 -0.03783905178)
(0.000160739457 4.089807752e-12 -0.03940620668)
(0.0001637279799 4.592181279e-12 -0.04098243711)
(0.0001663871046 5.141912467e-12 -0.0425678817)
(0.0001687099092 5.741838798e-12 -0.04416268006)
(0.0001706887833 6.394868052e-12 -0.04576698836)
(0.000172315471 7.103925484e-12 -0.04738097771)
(0.0001735804722 7.871998556e-12 -0.0490048501)
(0.0001744730357 8.702081715e-12 -0.05063883773)
(0.0001749804142 9.597223577e-12 -0.05228322227)
(0.0001750876757 1.056046247e-11 -0.0539383385)
(0.0001747766673 1.159487865e-11 -0.05560460032)
(0.0001740255437 1.270352224e-11 -0.05728251078)
(0.0001728073981 1.388946723e-11 -0.0589726951)
(0.0001710896283 1.515572656e-11 -0.06067591303)
(0.0001688325337 1.650529759e-11 -0.06239308999)
(0.0001659891339 1.7941047e-11 -0.06412531507)
(0.0001625046485 1.946572209e-11 -0.06587384671)
(0.0001583181069 2.10817723e-11 -0.06764006357)
(0.0001533643362 2.279128764e-11 -0.06942540753)
(0.0001475792228 2.459572238e-11 -0.07123124858)
(0.0001409059007 2.649573902e-11 -0.07305873502)
(0.0001333047056 2.849084923e-11 -0.07490856315)
(0.0001247631698 3.057922925e-11 -0.07678076136)
(0.0001153078014 3.275742616e-11 -0.07867444613)
(0.0001050118593 3.502037298e-11 -0.08058768236)
(9.399912855e-05 3.736147608e-11 -0.08251743515)
(8.243724676e-05 3.977316439e-11 -0.08445974798)
(7.052115698e-05 4.224763048e-11 -0.08641012124)
(5.844517431e-05 4.477794443e-11 -0.08836412535)
(4.637025375e-05 4.73590452e-11 -0.09031811131)
(3.439485618e-05 4.99883666e-11 -0.09226984781)
(2.254151511e-05 5.266523905e-11 -0.09421882081)
(1.076907213e-05 5.538843699e-11 -0.09616596242)
(-9.867223824e-07 5.815078616e-11 -0.09811273236)
)
;

boundaryField
{
    left
    {
        type            fixedValue;
        value           uniform (0 0 0);
    }
    right
    {
        type            fixedValue;
        value           uniform (-6.86889156e-06 5.953945907e-11 -0.09908631279);
    }
    beam
    {
        type            empty;
    }
}


// ************************************************************************* //
