/*--------------------------------*- C++ -*----------------------------------*\
| =========                 |                                                 |
| \\      /  F ield         | OpenFOAM: The Open Source CFD Toolbox           |
|  \\    /   O peration     | Version:  2312                                  |
|   \\  /    A nd           | Website:  www.openfoam.com                      |
|    \\/     M anipulation  |                                                 |
\*---------------------------------------------------------------------------*/
FoamFile
{
    version     2.0;
    format      ascii;
    arch        "LSB;label=32;scalar=64";
    class       volScalarField;
    location    "0.14";
    object      p;
}
// * * * * * * * * * * * * * * * * * * * * * * * * * * * * * * * * * * * * * //

dimensions      [1 -1 -2 0 0 0 0];

internalField   nonuniform List<scalar> 
299556
(
19.37475362
19.37476089
19.37476821
19.37477562
19.37478313
19.3747908
19.37479864
19.3748067
19.37481501
19.37482359
19.37483249
19.37484174
19.37485137
19.37486142
19.37487191
19.37488289
19.37489438
19.37490642
19.37491904
19.37493226
19.37494612
19.37496065
19.37497586
19.37499178
19.37500843
19.37502582
19.37504397
19.37506288
19.37508255
19.37510297
19.37512414
19.37514603
19.37516861
19.37519186
19.37521571
19.37524012
19.37526501
19.37529031
19.37531593
19.37534177
19.3753677
19.37539361
19.37541937
19.37544481
19.3754698
19.37549416
19.37551773
19.37554033
19.37556178
19.3755819
19.37560052
19.37561746
19.37563256
19.37564566
19.37565661
19.37566528
19.37567157
19.37567536
19.37567659
19.3756752
19.37567116
19.37566445
19.37565509
19.37564311
19.37562856
19.37561152
19.37559208
19.37557035
19.37554643
19.37552046
19.37549258
19.37546294
19.37543166
19.37539891
19.37536482
19.37532954
19.3752932
19.37525593
19.37521785
19.37517907
19.3751397
19.37509982
19.37505952
19.37501887
19.37497794
19.37493679
19.37489546
19.374854
19.37481245
19.37477083
19.37476082
19.37478255
19.37480442
19.37482654
19.374849
19.3748719
19.37489534
19.37491942
19.37494423
19.37496989
19.37499649
19.37502412
19.3750529
19.37508292
19.37511428
19.37514708
19.37518142
19.37521739
19.37525509
19.37529461
19.37533603
19.37537943
19.37542489
19.37547247
19.37552223
19.3755742
19.37562844
19.37568495
19.37574373
19.37580477
19.37586804
19.37593347
19.37600097
19.37607045
19.37614175
19.37621471
19.37628912
19.37636476
19.37644135
19.37651858
19.37659612
19.3766736
19.3767506
19.37682669
19.3769014
19.37697426
19.37704473
19.37711231
19.37717646
19.37723665
19.37729234
19.37734301
19.37738818
19.37742736
19.37746012
19.37748607
19.37750487
19.37751622
19.37751992
19.37751577
19.37750368
19.37748362
19.37745564
19.37741982
19.37737632
19.37732538
19.37726724
19.37720224
19.37713073
19.37705309
19.37696973
19.37688108
19.37678757
19.37668965
19.37658774
19.37648226
19.37637361
19.37626219
19.37614835
19.37603243
19.37591473
19.37579552
19.37567506
19.37555357
19.37543123
19.37530823
19.37518471
19.3750608
19.37493661
19.37481225
19.37476795
19.374804
19.37484029
19.37487699
19.37491426
19.37495225
19.37499115
19.3750311
19.37507228
19.37511485
19.37515898
19.37520483
19.37525258
19.37530239
19.37535442
19.37540885
19.37546583
19.37552552
19.37558808
19.37565365
19.37572238
19.3757944
19.37586984
19.37594879
19.37603136
19.37611762
19.37620763
19.3763014
19.37639896
19.37650027
19.37660527
19.37671386
19.37682591
19.37694122
19.37705957
19.37718068
19.37730421
19.37742977
19.37755692
19.37768514
19.37781387
19.3779425
19.37807035
19.3781967
19.37832077
19.37844174
19.37855878
19.37867102
19.37877756
19.37887752
19.37897002
19.37905419
19.37912921
19.3791943
19.37924873
19.37929185
19.37932309
19.37934197
19.37934812
19.37934124
19.37932118
19.37928789
19.37924142
19.37918194
19.37910972
19.37902512
19.37892859
19.37882066
19.37870191
19.37857298
19.37843457
19.37828738
19.37813212
19.37796954
19.37780034
19.37762522
19.37744486
19.37725989
19.37707091
19.37687848
19.3766831
19.37648523
19.37628528
19.37608363
19.37588059
19.37567644
19.37547143
19.37526578
19.37505968
19.37485329
19.37477497
19.37482512
19.37487561
19.37492666
19.3749785
19.37503136
19.37508547
19.37514105
19.37519834
19.37525756
19.37531895
19.37538275
19.37544917
19.37551847
19.37559086
19.37566658
19.37574586
19.3758289
19.37591594
19.37600718
19.37610281
19.37620301
19.37630797
19.37641784
19.37653273
19.37665276
19.376778
19.3769085
19.37704426
19.37718525
19.37733138
19.37748251
19.37763846
19.37779896
19.3779637
19.37813228
19.37830424
19.37847904
19.37865605
19.37883457
19.37901381
19.37919292
19.37937095
19.37954689
19.37971967
19.37988816
19.38005118
19.38020751
19.38035593
19.38049518
19.38062405
19.38074132
19.38084586
19.38093655
19.38101241
19.38107251
19.38111606
19.3811424
19.38115101
19.38114146
19.38111354
19.38106719
19.38100249
19.38091967
19.38081909
19.38070127
19.38056683
19.38041651
19.38025114
19.3800716
19.37987885
19.37967388
19.3794577
19.37923131
19.37899573
19.37875192
19.37850081
19.37824331
19.37798023
19.37771235
19.37744038
19.37716496
19.37688666
19.37660598
19.37632339
19.37603926
19.37575395
19.37546775
19.37518093
19.37489373
19.37478183
19.37484578
19.37491015
19.37497525
19.37504135
19.37510875
19.37517773
19.3752486
19.37532164
19.37539716
19.37547544
19.37555678
19.37564148
19.37572984
19.37582215
19.37591871
19.37601979
19.37612569
19.37623668
19.37635303
19.37647498
19.37660278
19.37673663
19.37687675
19.37702328
19.37717637
19.37733611
19.37750257
19.37767574
19.37785559
19.378042
19.37823481
19.37843376
19.37863854
19.37884873
19.37906384
19.37928328
19.37950635
19.37973225
19.3799601
19.38018889
19.38041752
19.38064479
19.38086942
19.38109002
19.38130517
19.38151334
19.38171298
19.38190254
19.3820804
19.38224501
19.38239484
19.38252839
19.38264428
19.38274122
19.38281804
19.38287372
19.38290741
19.38291846
19.38290632
19.38287072
19.38281157
19.38272897
19.38262323
19.38249482
19.38234439
19.38217275
19.38198082
19.38176968
19.38154046
19.38129439
19.38103272
19.38075675
19.38046778
19.38016707
19.37985588
19.37953541
19.37920677
19.37887105
19.37852922
19.37818219
19.37783077
19.37747569
19.3771176
19.37675707
19.37639461
19.37603064
19.37566555
19.37529968
19.37493333
19.3747885
19.37486585
19.37494371
19.37502245
19.3751024
19.37518392
19.37526737
19.37535309
19.37544144
19.37553278
19.37562747
19.37572586
19.37582832
19.37593521
19.37604687
19.37616367
19.37628596
19.37641407
19.37654834
19.3766891
19.37683664
19.37699125
19.3771532
19.37732273
19.37750003
19.37768527
19.37787857
19.37808
19.37828957
19.37850722
19.37873284
19.3789662
19.37920702
19.3794549
19.37970936
19.37996979
19.38023547
19.38050557
19.38077912
19.38105505
19.38133215
19.38160907
19.38188437
19.3821565
19.38242377
19.38268445
19.38293671
19.38317866
19.38340839
19.38362399
19.38382354
19.38400518
19.38416711
19.38430765
19.38442522
19.38451841
19.38458598
19.3846269
19.38464038
19.38462573
19.38458265
19.38451103
19.384411
19.3842829
19.38412733
19.38394508
19.38373712
19.3835046
19.3832488
19.3829711
19.38267301
19.38235604
19.38202176
19.38167176
19.38130756
19.3809307
19.38054261
19.38014468
19.37973818
19.37932432
19.37890418
19.37847876
19.37804893
19.37761547
19.37717909
19.37674038
19.37629986
19.375858
19.37541521
19.37497186
19.37479494
19.37488521
19.37497608
19.37506797
19.37516128
19.37525643
19.37535382
19.37545387
19.37555699
19.3756636
19.37577411
19.37588896
19.37600855
19.3761333
19.37626364
19.37639998
19.37654272
19.37669226
19.376849
19.37701331
19.37718555
19.37736605
19.37755513
19.37775305
19.37796006
19.37817635
19.37840205
19.37863727
19.378882
19.37913618
19.37939968
19.37967225
19.37995354
19.38024311
19.38054037
19.38084463
19.38115506
19.38147068
19.38179036
19.38211285
19.38243672
19.38276043
19.38308228
19.38340044
19.38371297
19.38401781
19.38431283
19.38459584
19.38486458
19.38511681
19.3853503
19.38556285
19.38575237
19.38591687
19.38605451
19.38616364
19.3862428
19.38629078
19.38630665
19.38628962
19.38623932
19.38615563
19.3860387
19.38588894
19.38570704
19.38549394
19.38525077
19.38497889
19.38467979
19.38435511
19.38400659
19.38363603
19.38324526
19.38283613
19.38241045
19.38197
19.38151646
19.38105144
19.38057646
19.38009291
19.37960206
19.37910506
19.37860294
19.37809663
19.37758691
19.3770745
19.37656001
19.37604396
19.37552685
19.37500909
19.37480109
19.37490373
19.37500706
19.37511154
19.37521764
19.37532582
19.37543656
19.37555032
19.37566758
19.3757888
19.37591447
19.37604506
19.37618105
19.37632291
19.37647113
19.37662617
19.37678849
19.37695856
19.37713682
19.37732369
19.37751958
19.37772488
19.37793994
19.37816507
19.37840054
19.37864659
19.37890336
19.37917096
19.3794494
19.37973862
19.38003845
19.38034862
19.38066875
19.38099832
19.38133668
19.38168304
19.38203644
19.38239578
19.38275979
19.38312703
19.38349588
19.38386459
19.38423122
19.38459369
19.38494978
19.38529715
19.38563337
19.38595593
19.38626228
19.38654983
19.38681605
19.38705843
19.38727458
19.38746222
19.38761926
19.3877438
19.38783418
19.38788902
19.38790724
19.38788796
19.38783074
19.38773546
19.38760227
19.38743166
19.38722443
19.38698162
19.38670456
19.38639479
19.38605401
19.38568411
19.38528707
19.38486495
19.38441985
19.38395386
19.38346906
19.38296748
19.38245103
19.38192157
19.38138081
19.38083032
19.38027157
19.37970587
19.37913438
19.37855814
19.37797807
19.37739496
19.37680951
19.37622231
19.37563391
19.3750448
19.37480694
19.37492131
19.37503645
19.37515288
19.37527112
19.37539168
19.37551508
19.37564185
19.37577252
19.37590762
19.37604766
19.3761932
19.37634475
19.37650286
19.37666805
19.37684085
19.37702177
19.37721133
19.37741001
19.37761831
19.37783667
19.37806552
19.37830526
19.37855624
19.37881877
19.37909309
19.37937939
19.37967777
19.37998827
19.38031081
19.3806452
19.38099115
19.38134824
19.38171588
19.38209337
19.38247981
19.38287415
19.38327516
19.38368141
19.38409132
19.38450308
19.38491472
19.38532408
19.38572884
19.38612653
19.38651454
19.38689013
19.38725051
19.38759282
19.38791417
19.38821171
19.38848265
19.3887243
19.38893412
19.38910976
19.38924909
19.38935025
19.38941169
19.38943221
19.38941082
19.38934703
19.38924069
19.389092
19.3889015
19.38867006
19.3883989
19.38808947
19.38774351
19.38736294
19.38694987
19.38650652
19.38603519
19.38553823
19.38501801
19.38447683
19.38391696
19.38334056
19.38274967
19.38214623
19.381532
19.38090859
19.38027747
19.37963994
19.37899717
19.37835015
19.37769977
19.37704681
19.37639193
19.37573573
19.37507875
19.37481243
19.37493784
19.37506409
19.37519175
19.37532139
19.37545358
19.37558889
19.3757279
19.37587118
19.37601931
19.37617288
19.37633247
19.37649866
19.37667204
19.37685319
19.37704269
19.3772411
19.37744899
19.3776669
19.37789535
19.37813485
19.37838586
19.37864883
19.37892414
19.37921213
19.37951308
19.37982718
19.38015456
19.38049526
19.38084918
19.38121615
19.38159583
19.38198775
19.38239131
19.3828057
19.38322996
19.38366294
19.38410329
19.38454944
19.38499966
19.38545196
19.38590418
19.38635395
19.38679873
19.38723579
19.38766226
19.38807514
19.38847134
19.38884772
19.38920112
19.38952837
19.38982641
19.39009227
19.39032316
19.39051646
19.39066986
19.39078129
19.39084903
19.39087178
19.39084843
19.39077846
19.39066169
19.39049834
19.39028901
19.39003469
19.38973668
19.38939663
19.38901643
19.38859821
19.38814429
19.38765713
19.38713926
19.38659329
19.38602179
19.38542734
19.3848124
19.38417937
19.38353049
19.38286788
19.38219348
19.38150907
19.38081625
19.38011644
19.37941092
19.37870079
19.37798701
19.37727042
19.37655176
19.37583167
19.37511074
19.37481754
19.3749532
19.37508979
19.37522789
19.37536814
19.37551115
19.37565754
19.37580793
19.37596294
19.3761232
19.37628935
19.37646201
19.37664182
19.37682941
19.37702541
19.37723044
19.37744513
19.37767008
19.37790587
19.37815309
19.37841226
19.37868391
19.37896851
19.37926648
19.37957818
19.37990393
19.38024394
19.38059834
19.38096718
19.38135037
19.3817477
19.38215883
19.38258327
19.38302032
19.38346916
19.38392874
19.3843978
19.38487489
19.38535833
19.38584622
19.38633643
19.38682661
19.3873142
19.38779644
19.38827036
19.38873286
19.38918068
19.38961047
19.39001881
19.39040226
19.3907574
19.39108088
19.39136948
19.39162016
19.39183009
19.39199672
19.39211783
19.39219154
19.39221642
19.39219127
19.39211554
19.39198902
19.39181197
19.39158503
19.39130927
19.39098613
19.3906174
19.39020513
19.38975166
19.38925951
19.38873134
19.38816993
19.3875781
19.38695865
19.38631437
19.38564796
19.38496201
19.38425895
19.38354108
19.38281049
19.38206913
19.38131871
19.38056079
19.37979674
19.37902773
19.37825482
19.37747891
19.37670078
19.37592112
19.37514057
19.37482223
19.37496732
19.37511339
19.3752611
19.37541109
19.37556404
19.3757206
19.37588144
19.37604723
19.37621864
19.37639634
19.37658101
19.37677333
19.37697398
19.37718363
19.37740294
19.37763259
19.37787321
19.37812545
19.37838991
19.37866718
19.37895781
19.3792623
19.37958111
19.37991463
19.38026319
19.38062704
19.38100631
19.38140105
19.38181119
19.38223649
19.3826766
19.38313097
19.38359891
19.3840795
19.38457164
19.38507398
19.38558498
19.38610283
19.38662551
19.38715073
19.38767598
19.38819852
19.38871538
19.38922339
19.38971923
19.39019938
19.39066027
19.39109821
19.39150952
19.3918905
19.39223758
19.39254728
19.39281633
19.39304169
19.39322063
19.39335074
19.39343002
19.39345691
19.39343015
19.39334912
19.39321361
19.39302388
19.39278066
19.39248509
19.39213871
19.39174345
19.39130153
19.39081546
19.39028796
19.38972189
19.38912023
19.38848602
19.38782227
19.38713199
19.38641805
19.38568325
19.38493019
19.38416133
19.38337894
19.38258506
19.38178155
19.38097007
19.38015207
19.37932883
19.37850145
19.37767089
19.37683799
19.37600348
19.37516803
19.37482648
19.3749801
19.37513476
19.37529115
19.37544997
19.37561191
19.37577769
19.37594799
19.37612353
19.37630503
19.37649319
19.37668874
19.37689239
19.37710486
19.37732686
19.37755911
19.3778023
19.37805713
19.37832426
19.37860435
19.37889801
19.37920583
19.37952835
19.37986604
19.38021934
19.38058859
19.38097405
19.38137588
19.38179412
19.38222869
19.38267938
19.38314578
19.38362735
19.38412332
19.38463276
19.38515447
19.38568707
19.38622888
19.38677803
19.38733235
19.38788943
19.3884466
19.38900096
19.38954936
19.39008845
19.39061466
19.39112431
19.39161356
19.39207851
19.39251524
19.39291983
19.39328846
19.39361744
19.39390329
19.39414278
19.39433298
19.39447135
19.39455574
19.39458452
19.39455631
19.39447047
19.39432678
19.39412553
19.39386748
19.39355385
19.39318629
19.39276686
19.39229793
19.39178216
19.39122245
19.39062186
19.38998355
19.38931076
19.3886067
19.38787455
19.38711738
19.38633815
19.38553963
19.38472443
19.38389495
19.38305336
19.38220163
19.38134151
19.38047454
19.37960206
19.37872524
19.37784509
19.37696249
19.37607821
19.37519295
19.37483025
19.37499146
19.37515376
19.37531787
19.37548453
19.37565447
19.37582843
19.37600715
19.37619137
19.37638184
19.3765793
19.37678452
19.37699825
19.37722123
19.37745422
19.37769797
19.37795322
19.37822068
19.37850106
19.37879505
19.3791033
19.37942642
19.37976498
19.38011948
19.38049039
19.38087806
19.38128276
19.38170468
19.38214385
19.38260021
19.3830735
19.38356335
19.38406915
19.38459013
19.38512529
19.3856734
19.38623299
19.38680232
19.38737941
19.38796199
19.38854754
19.38913324
19.38971605
19.39029266
19.39085954
19.39141294
19.39194899
19.39246364
19.39295279
19.3934123
19.39383805
19.39422601
19.3945723
19.39487323
19.39512539
19.39532572
19.39547152
19.39556053
19.39559101
19.39556154
19.39547143
19.39532044
19.39510889
19.39483757
19.39450779
19.39412129
19.39368023
19.39318713
19.39264479
19.39205628
19.39142481
19.39075374
19.39004646
19.38930637
19.38853681
19.38774103
19.38692212
19.38608302
19.38522646
19.38435496
19.3834708
19.38257606
19.38167257
19.38076193
19.37984555
19.37892467
19.37800032
19.37707343
19.3761448
19.37521516
19.37483353
19.37500133
19.37517026
19.37534109
19.37551457
19.37569146
19.37587254
19.37605857
19.37625032
19.37644859
19.37665414
19.37686776
19.37709024
19.37732237
19.37756491
19.37781866
19.37808438
19.37836283
19.37865474
19.37896081
19.37928175
19.37961817
19.37997068
19.38033982
19.38072604
19.38112974
19.38155119
19.38199059
19.38244799
19.38292331
19.3834163
19.38392656
19.38445348
19.38499626
19.38555384
19.38612496
19.38670808
19.38730142
19.38790288
19.38851013
19.38912053
19.38973115
19.39033881
19.39094006
19.39153123
19.39210841
19.39266754
19.39320442
19.39371474
19.3941942
19.39463848
19.39504337
19.39540482
19.39571897
19.39598226
19.39619147
19.3963438
19.39643687
19.39646888
19.39643833
19.39634449
19.39618714
19.39596659
19.39568368
19.39533979
19.39493673
19.39447677
19.39396254
19.39339698
19.3927833
19.39212486
19.39142516
19.39068777
19.38991622
19.389114
19.38828451
19.38743098
19.38655648
19.38566384
19.3847557
19.38383444
19.38290221
19.38196091
19.38101222
19.38005761
19.37909834
19.3781355
19.37717004
19.37620278
19.37523449
19.3748363
19.37500966
19.37518418
19.37536066
19.37553989
19.37572264
19.37590972
19.37610191
19.37630002
19.37650486
19.37671723
19.37693794
19.3771678
19.37740763
19.37765824
19.37792042
19.37819498
19.37848269
19.37878431
19.37910059
19.37943222
19.37977988
19.38014416
19.38052564
19.38092479
19.38134201
19.38177761
19.38223177
19.38270456
19.38319589
19.38370552
19.38423303
19.38477779
19.38533898
19.38591552
19.38650609
19.38710912
19.38772275
19.38834485
19.38897297
19.3896044
19.39023611
19.39086482
19.39148696
19.39209871
19.39269604
19.39327474
19.39383046
19.39435875
19.39485513
19.39531514
19.39573441
19.39610873
19.39643411
19.39670686
19.39692364
19.39708152
19.39717806
19.39721138
19.39717992
19.39708294
19.39692021
19.39669204
19.39639932
19.39604347
19.39562637
19.3951504
19.39461826
19.39403304
19.39339803
19.39271674
19.3919928
19.3912299
19.39043171
19.38960186
19.38874384
19.38786102
19.38695656
19.38603342
19.38509429
19.38414166
19.38317773
19.38220449
19.38122365
19.38023673
19.37924503
19.37824967
19.37725163
19.37625176
19.37525082
19.37483853
19.37501638
19.37519542
19.37537647
19.37556033
19.37574782
19.37593974
19.37613691
19.37634016
19.37655031
19.37676818
19.37699462
19.37723045
19.3774765
19.37773361
19.37800261
19.3782843
19.3785795
19.37888898
19.37921349
19.37955377
19.3799105
19.3802843
19.38067575
19.38108535
19.38151351
19.38196054
19.38242664
19.38291187
19.38341615
19.38393924
19.38448071
19.38503991
19.385616
19.38620788
19.3868142
19.38743335
19.38806342
19.38870223
19.38934726
19.38999573
19.39064455
19.39129032
19.39192939
19.39255783
19.39317152
19.3937661
19.39433712
19.39488
19.39539012
19.3958629
19.39629386
19.39667864
19.39701315
19.39729359
19.39751652
19.39767893
19.3977783
19.39781269
19.39778051
19.397681
19.3975139
19.39727956
19.39697888
19.39661332
19.39618485
19.39569588
19.39514922
19.39454804
19.39389573
19.39319592
19.39245233
19.39166875
19.39084897
19.38999672
19.38911559
19.38820904
19.38728032
19.38633246
19.38536825
19.38439022
19.38340065
19.38240154
19.38139469
19.38038163
19.37936369
19.37834203
19.37731763
19.37629137
19.37526403
19.37484022
19.37502145
19.37520391
19.37538841
19.37557578
19.37576684
19.37596243
19.37616336
19.37637049
19.37658464
19.37680668
19.37703744
19.37727777
19.37752853
19.37779056
19.37806471
19.3783518
19.37865265
19.37896806
19.3792988
19.37964562
19.3800092
19.3803902
19.3807892
19.3812067
19.38164312
19.3820988
19.38257392
19.38306856
19.38358265
19.38411592
19.38466794
19.38523807
19.38582543
19.38642893
19.38704717
19.38767853
19.38832105
19.3889725
19.38963035
19.39029174
19.39095351
19.39161222
19.39226412
19.39290522
19.3935313
19.39413793
19.39472056
19.3952745
19.39579505
19.39627753
19.39671735
19.39711008
19.39745153
19.39773781
19.39796541
19.39813127
19.39823279
19.39826801
19.39823529
19.39813386
19.39796346
19.39772443
19.39741772
19.39704481
19.39660771
19.39610889
19.39555122
19.39493794
19.39427253
19.39355867
19.39280018
19.39200093
19.39116479
19.39029557
19.38939693
19.38847241
19.38752532
19.38655875
19.38557555
19.38457829
19.3835693
19.38255063
19.38152409
19.38049124
19.37945346
19.37841189
19.37736756
19.37632133
19.37527402
19.37484135
19.37502486
19.3752096
19.37539642
19.37558613
19.37577959
19.37597763
19.37618108
19.37639081
19.37660765
19.37683248
19.37706614
19.37730949
19.3775634
19.37782873
19.37810633
19.37839703
19.37870167
19.37902106
19.37935598
19.37970718
19.38007536
19.38046118
19.38086523
19.38128803
19.38173
19.38219147
19.38267265
19.38317361
19.38369426
19.38423436
19.38479347
19.38537093
19.38596586
19.38657715
19.38720339
19.38784294
19.38849382
19.38915377
19.38982022
19.39049028
19.39116075
19.39182814
19.39248867
19.39313827
19.39377268
19.39438742
19.39497784
19.39553922
19.39606678
19.39655579
19.39700157
19.39739965
19.39774576
19.39803597
19.39826672
19.39843489
19.39853787
19.39857365
19.39854057
19.39843785
19.39826523
19.39802306
19.3977123
19.39733445
19.39689155
19.39638611
19.39582105
19.39519964
19.39452541
19.39380212
19.39303362
19.39222385
19.39137673
19.3904961
19.38958571
19.38864913
19.3876897
19.38671057
19.38571462
19.38470446
19.38368244
19.38265064
19.38161089
19.38056478
19.37951367
19.37845875
19.37740104
19.37634143
19.37528072
19.37484192
19.37502656
19.37521245
19.37540043
19.37559133
19.37578599
19.37598525
19.37618997
19.376401
19.3766192
19.37684542
19.37708053
19.3773254
19.37758089
19.37784787
19.3781272
19.37841972
19.37872626
19.37904765
19.37938466
19.37973806
19.38010855
19.38049679
19.38090338
19.38132883
19.38177359
19.38223797
19.38272218
19.38322631
19.38375026
19.38429378
19.38485644
19.38543758
19.38603631
19.38665151
19.38728178
19.38792543
19.38858051
19.38924473
19.38991549
19.39058991
19.39126475
19.39193651
19.39260136
19.39325524
19.39389384
19.39451264
19.39510698
19.3956721
19.39620319
19.39669547
19.39714425
19.39754501
19.39789347
19.39818566
19.39841799
19.39858733
19.39869104
19.3987271
19.39869384
19.39859047
19.39841674
19.398173
19.3978602
19.39747986
19.39703405
19.39652528
19.39595651
19.39533102
19.39465237
19.39392433
19.39315081
19.39233576
19.39148311
19.39059677
19.38968047
19.38873783
19.38777221
19.38678678
19.38578442
19.38476779
19.38373923
19.38270084
19.38165445
19.38060168
19.37954389
19.37848227
19.37741785
19.37635152
19.37528408
19.37484192
19.37502656
19.37521245
19.37540043
19.37559133
19.37578599
19.37598525
19.37618997
19.376401
19.3766192
19.37684542
19.37708053
19.3773254
19.37758089
19.37784787
19.3781272
19.37841972
19.37872626
19.37904765
19.37938466
19.37973806
19.38010855
19.38049679
19.38090338
19.38132883
19.38177359
19.38223797
19.38272218
19.38322631
19.38375026
19.38429378
19.38485644
19.38543758
19.38603631
19.38665151
19.38728178
19.38792543
19.38858051
19.38924473
19.38991549
19.39058991
19.39126475
19.39193651
19.39260136
19.39325524
19.39389384
19.39451264
19.39510698
19.3956721
19.39620319
19.39669547
19.39714425
19.39754501
19.39789347
19.39818566
19.39841799
19.39858733
19.39869104
19.3987271
19.39869384
19.39859047
19.39841674
19.398173
19.3978602
19.39747986
19.39703405
19.39652528
19.39595651
19.39533101
19.39465237
19.39392433
19.39315081
19.39233576
19.39148311
19.39059677
19.38968047
19.38873783
19.38777221
19.38678678
19.38578442
19.38476779
19.38373923
19.38270084
19.38165445
19.38060168
19.37954389
19.37848227
19.37741785
19.37635152
19.37528408
19.37484135
19.37502486
19.3752096
19.37539642
19.37558613
19.37577959
19.37597763
19.37618108
19.37639081
19.37660765
19.37683248
19.37706614
19.37730949
19.3775634
19.37782873
19.37810633
19.37839703
19.37870167
19.37902106
19.37935598
19.37970718
19.38007536
19.38046118
19.38086523
19.38128803
19.38173
19.38219147
19.38267265
19.38317361
19.38369426
19.38423436
19.38479347
19.38537093
19.38596586
19.38657715
19.38720339
19.38784294
19.38849382
19.38915377
19.38982022
19.39049028
19.39116075
19.39182814
19.39248867
19.39313827
19.39377268
19.39438741
19.39497784
19.39553922
19.39606678
19.39655579
19.39700157
19.39739965
19.39774576
19.39803597
19.39826672
19.39843489
19.39853787
19.39857365
19.39854057
19.39843785
19.39826523
19.39802306
19.3977123
19.39733445
19.39689155
19.3963861
19.39582105
19.39519964
19.39452541
19.39380212
19.39303362
19.39222385
19.39137673
19.3904961
19.38958571
19.38864912
19.3876897
19.38671057
19.38571462
19.38470446
19.38368244
19.38265064
19.38161089
19.38056478
19.37951367
19.37845875
19.37740104
19.37634143
19.37528072
19.37484022
19.37502145
19.37520391
19.37538841
19.37557578
19.37576684
19.37596243
19.37616336
19.37637049
19.37658464
19.37680668
19.37703744
19.37727777
19.37752853
19.37779056
19.37806471
19.3783518
19.37865265
19.37896806
19.3792988
19.37964562
19.3800092
19.3803902
19.3807892
19.3812067
19.38164312
19.3820988
19.38257392
19.38306856
19.38358265
19.38411592
19.38466794
19.38523807
19.38582543
19.38642893
19.38704717
19.38767853
19.38832105
19.38897251
19.38963035
19.39029174
19.39095351
19.39161222
19.39226412
19.39290522
19.3935313
19.39413793
19.39472056
19.3952745
19.39579505
19.39627753
19.39671735
19.39711008
19.39745153
19.39773781
19.39796541
19.39813127
19.39823279
19.39826801
19.39823529
19.39813386
19.39796345
19.39772443
19.39741772
19.39704481
19.39660771
19.39610888
19.39555122
19.39493794
19.39427253
19.39355867
19.39280018
19.39200093
19.39116479
19.39029557
19.38939693
19.38847241
19.38752532
19.38655875
19.38557555
19.38457829
19.3835693
19.38255063
19.38152409
19.38049124
19.37945346
19.37841189
19.37736756
19.37632133
19.37527402
19.37483853
19.37501638
19.37519542
19.37537647
19.37556033
19.37574782
19.37593974
19.37613691
19.37634016
19.37655031
19.37676818
19.37699462
19.37723045
19.3774765
19.37773361
19.37800261
19.3782843
19.3785795
19.37888898
19.37921349
19.37955377
19.3799105
19.3802843
19.38067575
19.38108535
19.38151351
19.38196054
19.38242664
19.38291187
19.38341615
19.38393924
19.38448071
19.38503991
19.385616
19.38620788
19.3868142
19.38743335
19.38806343
19.38870223
19.38934726
19.38999573
19.39064455
19.39129032
19.39192939
19.39255783
19.39317151
19.3937661
19.39433712
19.39487999
19.39539012
19.3958629
19.39629385
19.39667864
19.39701315
19.39729359
19.39751652
19.39767893
19.3977783
19.39781269
19.39778051
19.39768099
19.3975139
19.39727955
19.39697888
19.39661332
19.39618485
19.39569587
19.39514922
19.39454804
19.39389573
19.39319592
19.39245232
19.39166875
19.39084897
19.38999671
19.38911559
19.38820904
19.38728032
19.38633246
19.38536825
19.38439022
19.38340064
19.38240154
19.38139469
19.38038163
19.37936369
19.37834203
19.37731763
19.37629137
19.37526403
19.3748363
19.37500966
19.37518418
19.37536066
19.37553989
19.37572264
19.37590972
19.37610191
19.37630002
19.37650486
19.37671723
19.37693794
19.3771678
19.37740763
19.37765824
19.37792042
19.37819498
19.37848269
19.37878431
19.37910059
19.37943222
19.37977988
19.38014416
19.38052564
19.38092479
19.38134201
19.38177761
19.38223177
19.38270456
19.38319589
19.38370552
19.38423303
19.38477779
19.38533898
19.38591552
19.38650609
19.38710912
19.38772276
19.38834485
19.38897297
19.3896044
19.39023611
19.39086482
19.39148696
19.39209871
19.39269604
19.39327474
19.39383046
19.39435875
19.39485513
19.39531514
19.39573441
19.39610873
19.39643411
19.39670686
19.39692364
19.39708152
19.39717806
19.39721138
19.39717992
19.39708294
19.39692021
19.39669204
19.39639932
19.39604346
19.39562637
19.39515039
19.39461826
19.39403303
19.39339802
19.39271674
19.3919928
19.3912299
19.39043171
19.38960185
19.38874384
19.38786102
19.38695656
19.38603341
19.38509429
19.38414166
19.38317773
19.38220449
19.38122365
19.38023673
19.37924503
19.37824967
19.37725163
19.37625176
19.37525082
19.37483353
19.37500133
19.37517026
19.37534109
19.37551457
19.37569146
19.37587254
19.37605857
19.37625032
19.37644859
19.37665414
19.37686776
19.37709024
19.37732237
19.37756491
19.37781866
19.37808438
19.37836283
19.37865474
19.37896082
19.37928175
19.37961817
19.37997069
19.38033982
19.38072604
19.38112974
19.38155119
19.38199059
19.38244799
19.38292331
19.3834163
19.38392656
19.38445349
19.38499626
19.38555384
19.38612496
19.38670808
19.38730142
19.38790288
19.38851013
19.38912053
19.38973115
19.39033881
19.39094006
19.39153123
19.39210841
19.39266754
19.39320441
19.39371474
19.3941942
19.39463848
19.39504337
19.39540481
19.39571896
19.39598225
19.39619147
19.3963438
19.39643687
19.39646888
19.39643832
19.39634448
19.39618714
19.39596659
19.39568368
19.39533978
19.39493672
19.39447676
19.39396253
19.39339698
19.39278329
19.39212486
19.39142516
19.39068776
19.38991621
19.389114
19.38828451
19.38743098
19.38655648
19.38566384
19.3847557
19.38383444
19.38290221
19.38196091
19.38101222
19.38005761
19.37909834
19.3781355
19.37717004
19.37620278
19.37523449
19.37483025
19.37499146
19.37515376
19.37531787
19.37548453
19.37565447
19.37582844
19.37600715
19.37619137
19.37638184
19.37657931
19.37678452
19.37699825
19.37722123
19.37745422
19.37769797
19.37795322
19.37822068
19.37850106
19.37879505
19.3791033
19.37942642
19.37976498
19.38011948
19.38049039
19.38087806
19.38128276
19.38170468
19.38214385
19.38260021
19.3830735
19.38356335
19.38406915
19.38459014
19.3851253
19.3856734
19.38623299
19.38680232
19.38737941
19.38796199
19.38854754
19.38913324
19.38971605
19.39029266
19.39085953
19.39141294
19.39194899
19.39246364
19.39295279
19.3934123
19.39383805
19.39422601
19.39457229
19.39487322
19.39512539
19.39532572
19.39547152
19.39556053
19.39559101
19.39556154
19.39547142
19.39532044
19.39510889
19.39483757
19.39450779
19.39412129
19.39368023
19.39318712
19.39264479
19.39205627
19.39142481
19.39075374
19.39004646
19.38930637
19.38853681
19.38774103
19.38692212
19.38608302
19.38522646
19.38435495
19.3834708
19.38257606
19.38167256
19.38076193
19.37984555
19.37892467
19.37800032
19.37707343
19.3761448
19.37521516
19.37482648
19.3749801
19.37513476
19.37529115
19.37544997
19.37561191
19.37577769
19.37594799
19.37612353
19.37630503
19.37649319
19.37668874
19.37689239
19.37710486
19.37732686