/*--------------------------------*- C++ -*----------------------------------*\
| =========                 |                                                 |
| \\      /  F ield         | OpenFOAM: The Open Source CFD Toolbox           |
|  \\    /   O peration     | Version:  2312                                  |
|   \\  /    A nd           | Website:  www.openfoam.com                      |
|    \\/     M anipulation  |                                                 |
\*---------------------------------------------------------------------------*/
FoamFile
{
    version     2.0;
    format      ascii;
    arch        "LSB;label=32;scalar=64";
    class       volScalarField;
    location    "0.16";
    object      p;
}
// * * * * * * * * * * * * * * * * * * * * * * * * * * * * * * * * * * * * * //

dimensions      [1 -1 -2 0 0 0 0];

internalField   nonuniform List<scalar> 
299556
(
19.37475399
19.374762
19.37477007
19.37477824
19.37478653
19.37479499
19.37480366
19.37481258
19.37482177
19.37483129
19.37484118
19.37485146
19.37486218
19.37487338
19.37488511
19.37489738
19.37491026
19.37492377
19.37493796
19.37495285
19.37496849
19.3749849
19.37500212
19.37502018
19.3750391
19.37505889
19.37507959
19.37510119
19.3751237
19.37514712
19.37517144
19.37519664
19.37522268
19.37524953
19.37527714
19.37530545
19.37533437
19.37536382
19.3753937
19.37542388
19.37545423
19.37548462
19.37551487
19.37554482
19.37557428
19.37560306
19.37563094
19.37565773
19.37568321
19.37570716
19.37572937
19.37574962
19.37576772
19.37578347
19.37579669
19.37580724
19.37581495
19.37581973
19.37582148
19.37582013
19.37581563
19.37580798
19.3757972
19.37578332
19.37576641
19.37574657
19.37572391
19.37569855
19.37567065
19.37564036
19.37560785
19.37557329
19.37553687
19.37549876
19.37545912
19.37541815
19.37537598
19.37533279
19.3752887
19.37524385
19.37519836
19.37515234
19.37510587
19.37505905
19.37501194
19.37496461
19.3749171
19.37486946
19.37482172
19.37477393
19.37476192
19.37478586
19.37480998
19.37483436
19.37485915
19.37488443
19.37491034
19.37493697
19.37496446
19.3749929
19.37502243
19.37505316
19.3750852
19.37511867
19.37515369
19.37519038
19.37522886
19.37526923
19.37531162
19.37535612
19.37540285
19.3754519
19.37550336
19.37555733
19.37561386
19.37567303
19.37573488
19.37579944
19.37586672
19.37593672
19.3760094
19.37608471
19.37616255
19.37624282
19.37632535
19.37640996
19.37649643
19.37658447
19.37667379
19.37676402
19.37685479
19.37694564
19.3770361
19.37712566
19.37721375
19.37729981
19.37738322
19.37746334
19.37753954
19.37761118
19.3776776
19.37773819
19.37779233
19.37783945
19.37787902
19.37791057
19.37793367
19.37794798
19.37795322
19.37794918
19.37793574
19.37791287
19.37788063
19.37783913
19.37778857
19.37772924
19.37766146
19.37758563
19.37750218
19.3774116
19.37731438
19.37721105
19.37710214
19.37698817
19.37686967
19.37674715
19.37662109
19.37649194
19.37636014
19.37622607
19.37609009
19.37595251
19.37581362
19.37567366
19.37553285
19.37539137
19.37524937
19.37510699
19.37496433
19.37482149
19.37476978
19.3748095
19.37484951
19.37488998
19.37493109
19.37497305
19.37501603
19.37506023
19.37510583
19.37515303
19.37520203
19.37525301
19.37530617
19.37536171
19.37541983
19.37548071
19.37554455
19.37561155
19.37568188
19.37575572
19.37583326
19.37591466
19.37600006
19.37608961
19.37618343
19.37628163
19.37638427
19.37649141
19.37660308
19.37671925
19.37683989
19.37696488
19.3770941
19.37722733
19.37736433
19.37750479
19.37764832
19.37779448
19.37794277
19.37809259
19.37824329
19.37839414
19.37854436
19.37869308
19.37883938
19.3789823
19.37912082
19.37925391
19.37938048
19.37949948
19.37960982
19.37971047
19.37980041
19.37987871
19.37994446
19.37999689
19.38003529
19.38005908
19.38006781
19.38006111
19.38003881
19.38000084
19.3799473
19.37987838
19.37979442
19.37969588
19.37958332
19.37945738
19.3793188
19.37916837
19.37900693
19.37883534
19.37865448
19.37846524
19.37826849
19.37806506
19.37785576
19.37764135
19.37742254
19.37719996
19.37697422
19.37674585
19.3765153
19.37628298
19.37604926
19.37581443
19.37557874
19.37534243
19.37510567
19.37486863
19.37477751
19.37483278
19.37488843
19.37494473
19.37500193
19.3750603
19.37512009
19.37518157
19.37524502
19.37531068
19.37537885
19.37544977
19.37552373
19.37560101
19.37568186
19.37576656
19.37585538
19.37594859
19.37604645
19.3761492
19.37625708
19.37637034
19.37648917
19.37661378
19.37674433
19.37688096
19.3770238
19.3771729
19.3773283
19.37748999
19.37765789
19.37783186
19.37801171
19.37819716
19.37838787
19.3785834
19.37878322
19.37898672
19.37919318
19.37940179
19.37961164
19.37982171
19.38003091
19.38023804
19.38044182
19.3806409
19.38083387
19.38101927
19.38119562
19.38136142
19.38151518
19.38165544
19.38178079
19.38188991
19.38198158
19.38205466
19.38210821
19.3821414
19.38215361
19.38214431
19.38211328
19.38206042
19.38198585
19.38188986
19.38177292
19.38163566
19.38147887
19.38130345
19.38111043
19.3809009
19.38067605
19.38043707
19.3801852
19.37992167
19.37964768
19.37936442
19.379073
19.37877447
19.37846982
19.37815996
19.37784571
19.3775278
19.37720687
19.37688351
19.37655819
19.37623135
19.37590333
19.37557444
19.37524494
19.37491507
19.37478507
19.37485554
19.3749265
19.37499828
19.37507121
19.37514563
19.37522187
19.37530027
19.37538116
19.3754649
19.37555181
19.37564224
19.37573655
19.37583509
19.37593818
19.37604619
19.37615946
19.37627832
19.37640311
19.37653414
19.37667172
19.37681616
19.37696771
19.37712664
19.37729314
19.37746742
19.37764961
19.3778398
19.37803804
19.3782443
19.37845849
19.37868045
19.37890991
19.37914655
19.3793899
19.37963941
19.37989443
19.38015415
19.38041768
19.38068396
19.38095185
19.38122006
19.38148716
19.38175164
19.38201187
19.38226612
19.38251259
19.38274942
19.3829747
19.38318652
19.38338297
19.3835622
19.38372239
19.38386186
19.38397903
19.38407248
19.38414096
19.38418343
19.38419909
19.38418729
19.3841477
19.38408023
19.38398502
19.38386245
19.38371311
19.38353782
19.38333759
19.38311357
19.38286708
19.38259952
19.3823124
19.38200726
19.38168568
19.38134923
19.38099945
19.38063785
19.38026586
19.37988483
19.37949602
19.37910057
19.37869954
19.37829386
19.37788437
19.37747178
19.37705672
19.37663972
19.37622124
19.37580168
19.37538135
19.37496056
19.37479242
19.37487766
19.37496349
19.37505031
19.37513853
19.37522854
19.37532076
19.37541559
19.37551344
19.37561472
19.37571985
19.37582924
19.37594333
19.37606252
19.37618723
19.37631789
19.37645491
19.37659871
19.37674967
19.37690819
19.37707465
19.3772494
19.37743277
19.37762506
19.37782654
19.37803743
19.3782579
19.37848806
19.37872798
19.37897762
19.37923687
19.37950554
19.37978332
19.38006979
19.38036442
19.38066653
19.38097533
19.38128985
19.38160901
19.38193154
19.38225604
19.38258096
19.38290457
19.38322504
19.38354039
19.38384853
19.38414726
19.38443434
19.38470745
19.38496427
19.38520249
19.38541984
19.38561414
19.38578332
19.38592548
19.38603887
19.386122
19.3861736
19.3861927
19.38617848
19.38613058
19.38604886
19.38593351
19.38578499
19.38560402
19.3853916
19.38514894
19.38487746
19.38457875
19.38425454
19.38390663
19.38353692
19.38314731
19.38273971
19.38231601
19.38187802
19.38142747
19.38096602
19.38049516
19.38001632
19.37953075
19.37903959
19.37854383
19.37804436
19.37754192
19.37703716
19.37653064
19.37602282
19.37551409
19.37500482
19.37479951
19.37489899
19.37499916
19.37510049
19.37520345
19.37530851
19.37541614
19.37552681
19.37564102
19.37575923
19.37588193
19.37600962
19.37614278
19.3762819
19.37642747
19.37657999
19.37673994
19.37690779
19.37708402
19.37726908
19.37746341
19.37766742
19.37788151
19.37810602
19.37834127
19.37858751
19.37884496
19.37911374
19.37939393
19.37968549
19.3799883
19.38030213
19.38062663
19.38096131
19.38130554
19.38165855
19.38201941
19.38238699
19.38276003
19.38313705
19.38351641
19.38389629
19.3842747
19.38464947
19.3850183
19.38537873
19.38572821
19.3860641
19.38638368
19.38668423
19.38696305
19.38721748
19.38744496
19.38764306
19.38780955
19.38794239
19.38803982
19.38810034
19.38812282
19.38810631
19.38805037
19.38795487
19.38782
19.3876463
19.38743464
19.38718618
19.38690235
19.38658482
19.38623546
19.38585627
19.38544941
19.38501707
19.38456151
19.38408495
19.38358961
19.3830776
19.38255097
19.38201163
19.38146135
19.38090179
19.38033441
19.37976054
19.37918134
19.37859784
19.37801092
19.37742131
19.37682968
19.37623654
19.37564238
19.3750476
19.3748063
19.3749194
19.3750333
19.37514851
19.37526558
19.37538504
19.37550742
19.37563327
19.37576312
19.37589754
19.37603707
19.37618226
19.37633368
19.37649189
19.37665743
19.37683087
19.37701277
19.37720366
19.37740409
19.37761456
19.37783559
19.37806764
19.37831116
19.37856654
19.37883415
19.37911429
19.37940719
19.37971301
19.38003181
19.38036359
19.38070819
19.38106535
19.38143469
19.38181565
19.38220752
19.38260943
19.3830203
19.38343888
19.38386372
19.38429314
19.38472528
19.38515807
19.38558923
19.3860163
19.38643665
19.38684749
19.38724589
19.38762884
19.38799326
19.38833603
19.38865405
19.38894429
19.38920383
19.3894299
19.38961992
19.38977159
19.38988287
19.38995206
19.38997787
19.38995921
19.38989557
19.3897868
19.38963314
19.3894352
19.38919397
19.38891079
19.38858729
19.38822539
19.38782722
19.38739509
19.38693145
19.38643882
19.38591976
19.38537684
19.38481256
19.38422936
19.38362956
19.38301534
19.38238874
19.38175162
19.38110565
19.38045235
19.37979304
19.37912888
19.37846087
19.37778984
19.37711654
19.37644156
19.37576544
19.37508863
19.37481273
19.37493877
19.37506569
19.37519408
19.37532454
19.37545766
19.37559404
19.37573429
19.375879
19.3760288
19.3761843
19.37634611
19.37651486
19.37669118
19.37687569
19.377069
19.37727174
19.37748451
19.37770791
19.37794253
19.37818891
19.37844759
19.37871907
19.3790038
19.37930217
19.37961452
19.37994112
19.38028214
19.38063768
19.38100771
19.38139207
19.38179048
19.38220251
19.38262753
19.38306478
19.38351327
19.38397182
19.38443902
19.38491325
19.38539267
19.38587518
19.38635847
19.38684001
19.38731705
19.38778664
19.38824567
19.38869087
19.38911886
19.3895262
19.38990939
19.39026498
19.39058955
19.39087984
19.39113273
19.39134535
19.39151511
19.39163972
19.39171727
19.39174633
19.39172566
19.3916547
19.39153329
19.39136168
19.39114057
19.39087108
19.39055471
19.39019329
19.38978898
19.38934416
19.38886143
19.38834354
19.38779331
19.38721362
19.38660734
19.38597727
19.38532615
19.38465656
19.38397094
19.38327158
19.38256054
19.3818397
19.38111074
19.38037514
19.37963419
19.37888898
19.37814047
19.37738946
19.37663661
19.37588251
19.37512767
19.37481878
19.37495698
19.37509615
19.37523693
19.37537997
19.37552593
19.37567548
19.37582925
19.37598794
19.3761522
19.37632271
19.37650015
19.3766852
19.37687856
19.37708089
19.37729289
19.37751523
19.37774858
19.37799361
19.37825093
19.37852118
19.37880493
19.37910272
19.37941507
19.3797424
19.38008508
19.38044343
19.38081762
19.38120777
19.38161385
19.38203569
19.38247299
19.38292527
19.38339188
19.38387195
19.38436441
19.38486797
19.3853811
19.38590201
19.38642869
19.38695883
19.3874899
19.38801912
19.38854346
19.3890597
19.38956439
19.39005395
19.39052466
19.39097271
19.39139427
19.39178552
19.39214271
19.39246222
19.39274062
19.39297474
19.39316172
19.39329904
19.3933846
19.39341679
19.39339428
19.39331643
19.39318307
19.39299448
19.39275143
19.39245518
19.39210736
19.39171002
19.39126552
19.39077652
19.39024588
19.38967663
19.38907188
19.38843482
19.3877686
19.38707631
19.38636096
19.38562541
19.38487234
19.38410425
19.38332341
19.38253189
19.38173154
19.38092396
19.38011056
19.37929256
19.37847099
19.3776467
19.37682045
19.37599285
19.37516446
19.37482441
19.37497392
19.37512447
19.37527677
19.37543152
19.37558943
19.37575121
19.37591758
19.37608926
19.37626697
19.37645145
19.37664343
19.37684364
19.37705285
19.37727177
19.37750116
19.37774174
19.37799425
19.3782594
19.37853786
19.37883033
19.37913741
19.37945972
19.37979779
19.38015209
19.38052304
19.38091097
19.38131608
19.38173849
19.38217818
19.38263499
19.38310857
19.38359842
19.38410384
19.38462389
19.38515743
19.38570305
19.3862591
19.38682367
19.38739454
19.38796925
19.38854505
19.38911892
19.38968758
19.39024752
19.39079503
19.3913262
19.39183699
19.39232327
19.39278087
19.39320563
19.39359347
19.39394046
19.39424287
19.39449724
19.39470045
19.39484977
19.3949429
19.39497809
19.3949539
19.39486963
19.39472509
19.3945206
19.39425701
19.39393567
19.39355837
19.39312736
19.3926452
19.39211479
19.39153925
19.39092188
19.39026607
19.38957528
19.38885295
19.38810244
19.38732702
19.38652978
19.38571364
19.38488131
19.38403526
19.38317773
19.3823107
19.38143592
19.38055492
19.37966899
19.37877924
19.37788661
19.37699189
19.37609574
19.37519877
19.37482958
19.37498948
19.37515049
19.37531337
19.37547887
19.37564776
19.37582079
19.37599872
19.37618234
19.37637241
19.37656971
19.37677505
19.3769892
19.37721297
19.37744714
19.37769251
19.37794987
19.37821998
19.37850363
19.37880153
19.37911442
19.37944297
19.37978782
19.38014955
19.38052868
19.38092564
19.38134079
19.38177436
19.38222649
19.38269714
19.38318615
19.38369316
19.38421764
19.38475884
19.38531577
19.38588719
19.38647163
19.38706732
19.38767219
19.3882839
19.3888998
19.38951694
19.39013211
19.39074178
19.39134218
19.39192934
19.39249906
19.393047
19.39356872
19.39405975
19.3945156
19.39493191
19.39530443
19.39562914
19.39590234
19.39612066
19.39628116
19.39638137
19.3964194
19.3963937
19.39630352
19.39614866
19.39592947
19.39564686
19.39530229
19.39489771
19.39443551
19.39391849
19.39334975
19.39273265
19.39207075
19.39136771
19.39062723
19.38985303
19.3890487
19.38821777
19.38736355
19.38648918
19.38559756
19.38469133
19.38377289
19.38284437
19.38190763
19.3809643
19.38001577
19.3790632
19.37810761
19.37714981
19.37619052
19.37523037
19.37483426
19.37500356
19.37517404
19.3753465
19.37552174
19.37570056
19.37588376
19.37607217
19.37626659
19.37646785
19.37667678
19.37689421
19.37712098
19.37735793
19.37760591
19.37786576
19.3781383
19.37842437
19.37872476
19.37904028
19.37937168
19.37971969
19.38008497
19.38046815
19.38086977
19.38129032
19.38173016
19.38218955
19.38266863
19.38316738
19.38368562
19.38422299
19.38477892
19.38535262
19.38594306
19.38654893
19.38716866
19.38780039
19.38844193
19.38909081
19.38974422
19.39039903
19.39105182
19.39169887
19.39233618
19.39295951
19.39356441
19.39414627
19.39470037
19.39522194
19.39570623
19.39614856
19.39654444
19.39688958
19.39718003
19.3974122
19.39758296
19.39768969
19.39773036
19.39770332
19.39760779
19.39744354
19.39721095
19.39691101
19.39654525
19.39611578
19.39562514
19.39507631
19.39447261
19.39381762
19.39311513
19.39236903
19.39158329
19.39076182
19.3899085
19.38902703
19.38812095
19.3871936
19.38624805
19.3852871
19.3843133
19.3833289
19.38233587
19.38133593
19.38033055
19.37932095
19.37830819
19.37729314
19.37627654
19.37525904
19.37483842
19.37501608
19.37519497
19.37537595
19.37555984
19.3757475
19.37593976
19.37613747
19.3763415
19.37655271
19.37677197
19.37700015
19.37723814
19.37748683
19.37774709
19.37801981
19.37830586
19.37860612
19.37892143
19.37925262
19.37960049
19.3799658
19.38034927
19.38075154
19.38117321
19.38161476
19.38207659
19.38255898
19.38306207
19.38358586
19.38413016
19.3846946
19.38527857
19.38588127
19.3865016
19.38713822
19.38778946
19.38845338
19.3891277
19.38980979
19.39049673
19.39118523
19.39187169
19.3925522
19.39322255
19.39387827
19.3945147
19.39512696
19.3957101
19.39625907
19.39676887
19.39723458
19.39765144
19.39801494
19.39832089
19.39856553
19.39874554
19.39885814
19.39890121
19.39887301
19.39877271
19.39860008
19.39835551
19.39804004
19.39765532
19.39720355
19.39668744
19.39611014
19.39547513
19.39478622
19.39404739
19.39326277
19.39243652
19.39157279
19.39067565
19.38974901
19.3887966
19.38782192
19.3868282
19.3858184
19.38479519
19.38376092
19.38271767
19.38166724
19.38061115
19.3795507
19.37848698
19.37742089
19.37635321
19.3752846
19.37484204
19.37502696
19.37521317
19.37540154
19.37559296
19.37578829
19.37598841
19.37619422
19.3764066
19.37662645
19.37685469
19.37709223
19.37733997
19.37759885
19.37786979
19.3781537
19.3784515
19.3787641
19.37909237
19.37943719
19.37979939
19.38017976
19.38057905
19.38099793
19.38143703
19.38189686
19.38237784
19.38288025
19.38340426
19.38394986
19.38451685
19.38510487
19.38571329
19.38634127
19.38698767
19.3876511
19.38832984
19.38902185
19.38972476
19.39043587
19.3911521
19.39187003
19.39258592
19.39329568
19.39399492
19.394679
19.39534302
19.3959819
19.39659047
19.39716345
19.39769562
19.39818182
19.39861708
19.39899669
19.39931626
19.39957185
19.39975999
19.39987778
19.399923
19.39989381
19.39978936
19.3996094
19.39935435
19.39902531
19.398624
19.39815273
19.39761434
19.39701211
19.39634973
19.39563115
19.39486055
19.39404225
19.3931806
19.39227994
19.39134452
19.39037843
19.38938556
19.38836957
19.38733382
19.38628141
19.38521509
19.38413734
19.38305031
19.38195587
19.38085559
19.37975083
19.37864271
19.37753216
19.37641998
19.37530687
19.37484508
19.37503613
19.37522851
19.37542312
19.37562088
19.37582268
19.37602943
19.37624206
19.37646148
19.37668863
19.37692444
19.37716985
19.37742582
19.3776933
19.37797324
19.37826659
19.3785743
19.3788973
19.37923651
19.37959283
19.37996711
19.38036019
19.38077283
19.38120574
19.38165956
19.38213482
19.38263195
19.38315128
19.38369295
19.38425696
19.38484314
19.38545108
19.38608016
19.38672951
19.38739796
19.38808406
19.38878606
19.38950184
19.39022897
19.39096463
19.39170567
19.39244854
19.39318936
19.39392392
19.39464767
19.39535579
19.39604322
19.3967047
19.39733485
19.39792823
19.39847939
19.39898301
19.39943392
19.39982723
19.40015839
19.4004233
19.40061837
19.40074059
19.40078764
19.40075764
19.40064968
19.40046352
19.4001996
19.39985905
19.39944367
19.39895587
19.39839857
19.39777522
19.39708962
19.39634588
19.39554835
19.3947015
19.39380986
19.39287791
19.39191007
19.39091057
19.38988345
19.38883249
19.38776119
19.38667272
19.38556995
19.38445543
19.38333139
19.38219974
19.38106212
19.37991991
19.37877428
19.37762617
19.3764764
19.37532567
19.37484755
19.37504353
19.37524089
19.37544055
19.37564342
19.37585045
19.37606256
19.3762807
19.3765058
19.37673884
19.37698076
19.37723255
19.37749516
19.37776959
19.3780568
19.37835778
19.37867349
19.3790049
19.37935295
19.37971855
19.3801026
19.38050595
19.38092938
19.38137363
19.38183934
19.38232708
19.38283728
19.38337028
19.38392623
19.38450515
19.38510685
19.38573091
19.38637672
19.38704336
19.38772965
19.38843413
19.38915496
19.38989001
19.39063675
19.39139232
19.39215347
19.39291656
19.39367761
19.39443229
19.39517592
19.39590356
19.39661
19.39728984
19.39793753
19.39854748
19.39911409
19.39963186
19.4000955
19.40049995
19.40084054
19.40111305
19.40131377
19.4014396
19.40148816
19.40145751
19.40134672
19.40115554
19.40088442
19.40053454
19.40010774
19.3996065
19.39903387
19.39839337
19.39768892
19.39692477
19.39610539
19.39523538
19.3943194
19.39336208
19.39236795
19.39134137
19.3902865
19.3892072
19.38810708
19.38698941
19.38585712
19.38471283
19.38355882
19.38239706
19.38122922
19.38005671
19.37888072
19.37770222
19.37652203
19.37534089
19.37484941
19.37504913
19.37525025
19.37545371
19.37566046
19.37587143
19.37608759
19.37630989
19.37653929
19.37677678
19.37702332
19.37727991
19.37754755
19.37782722
19.37811993
19.37842667
19.37874843
19.3790862
19.37944092
19.37981355
19.38020499
19.3806161
19.38104769
19.3815005
19.38197521
19.38247238
19.38299247
19.38353581
19.38410257
19.38469276
19.3853062
19.38594247
19.38660093
19.38728066
19.38798047
19.38869885
19.38943395
19.39018359
19.3909452
19.39171585
19.39249224
19.39327066
19.39404705
19.39481698
19.3955757
19.39631815
19.39703901
19.39773278
19.39839378
19.39901631
19.39959465
19.40012319
19.40059649
19.40100942
19.40135718
19.40163546
19.40184048
19.40196907
19.40201879
19.40198765
19.40187472
19.40167973
19.40140315
19.40104619
19.40061072
19.4000993
19.39951503
19.39886152
19.39814278
19.39736314
19.39652719
19.39563962
19.39470519
19.39372864
19.39271459
19.39166749
19.39059158
19.38949082
19.38836888
19.38722909
19.38607445
19.38490762
19.38373092
19.38254637
19.38135565
19.38016022
19.37896125
19.37775976
19.37655656
19.3753524
19.37485065
19.37505288
19.37525652
19.37546253
19.37567187
19.37588549
19.37610436
19.37632945
19.37656173
19.3768022
19.37705184
19.37731166
19.37758266
19.37786585
19.37816224
19.37847285
19.37879866
19.37914069
19.37949989
19.37987723
19.38027361
19.38068993
19.38112699
19.38158555
19.38206629
19.38256979
19.3830965
19.38364678
19.38422079
19.38481855
19.38543986
19.38608431
19.38675126
19.38743978
19.38814866
19.38887638
19.38962106
19.39038049
19.39115208
19.39193286
19.39271948
19.3935082
19.3942949
19.39507509
19.39584394
19.39659635
19.39732691
19.39803004
19.3987
19.39933099
19.39991722
19.400453
19.40093281
19.40135143
19.40170403
19.4019862
19.40219411
19.40232456
19.40237506
19.4023436
19.40222923
19.40203169
19.40175144
19.40138972
19.40094843
19.40043017
19.39983808
19.39917582
19.39844747
19.39765743
19.39681033
19.39591096
19.39496414
19.39397467
19.39294723
19.39188635
19.39079632
19.38968114
19.38854455
19.38738991
19.38622027
19.38503831
19.38384639
19.38264654
19.38144048
19.38022966
19.37901528
19.37779836
19.37657973
19.37536012
19.37485128
19.37505476
19.37525967
19.37546696
19.3756776
19.37589255
19.37611277
19.37633926
19.37657299
19.37681495
19.37706615
19.37732758
19.37760027
19.37788522
19.37818347
19.37849601
19.37882386
19.37916802
19.37952947
19.37990917
19.38030804
19.38072696
19.38116676
19.38162821
19.38211198
19.38261865
19.38314869
19.38370245
19.3842801
19.38488165
19.38550691
19.38615548
19.38682669
19.38751962
19.38823306
19.38896545
19.38971494
19.39047929
19.3912559
19.39204177
19.39283353
19.39362742
19.3944193
19.39520463
19.39597859
19.39673599
19.39747143
19.39817926
19.39885373
19.39948897
19.40007917
19.40061859
19.40110167
19.40152316
19.40187818
19.40216231
19.40237168
19.40250306
19.40255396
19.40252234
19.40240725
19.40220842
19.40192634
19.40156222
19.40111801
19.40059631
19.40000028
19.39933363
19.39860045
19.39780518
19.39695249
19.3960472
19.39509415
19.39409818
19.39306402
19.39199622
19.39089909
19.38977668
19.38863273
19.38747064
19.38629346
19.38510391
19.38390435
19.38269682
19.38148305
19.38026451
19.3790424
19.37781773
19.37659135
19.375364
19.37485128
19.37505476
19.37525967
19.37546696
19.3756776
19.37589255
19.37611277
19.37633926
19.37657299
19.37681495
19.37706615
19.37732758
19.37760027
19.37788522
19.37818347
19.37849601
19.37882386
19.37916802
19.37952947
19.37990917
19.38030804
19.38072696
19.38116676
19.38162821
19.38211198
19.38261865
19.38314869
19.38370245
19.3842801
19.38488165
19.38550691
19.38615548
19.38682669
19.38751962
19.38823306
19.38896545
19.38971494
19.39047929
19.3912559
19.39204177
19.39283353
19.39362742
19.3944193
19.39520463
19.39597859
19.39673599
19.39747143
19.39817926
19.39885373
19.39948898
19.40007917
19.40061859
19.40110167
19.40152316
19.40187818
19.40216231
19.40237169
19.40250306
19.40255396
19.40252234
19.40240725
19.40220843
19.40192634
19.40156222
19.40111801
19.40059631
19.40000028
19.39933363
19.39860045
19.39780518
19.3969525
19.3960472
19.39509415
19.39409818
19.39306402
19.39199622
19.39089909
19.38977668
19.38863273
19.38747064
19.38629346
19.38510391
19.38390435
19.38269682
19.38148305
19.38026451
19.3790424
19.37781773
19.37659135
19.375364
19.37485065
19.37505288
19.37525652
19.37546253
19.37567187
19.37588549
19.37610436
19.37632945
19.37656173
19.3768022
19.37705184
19.37731166
19.37758266
19.37786585
19.37816224
19.37847285
19.37879866
19.37914069
19.37949989
19.37987723
19.38027361
19.38068993
19.38112699
19.38158555
19.38206629
19.38256979
19.3830965
19.38364678
19.38422079
19.38481855
19.38543986
19.38608431
19.38675126
19.38743978
19.38814866
19.38887638
19.38962106
19.39038049
19.39115208
19.39193286
19.39271948
19.3935082
19.3942949
19.39507509
19.39584394
19.39659635
19.39732691
19.39803004
19.3987
19.39933099
19.39991722
19.400453
19.40093281
19.40135143
19.40170403
19.4019862
19.40219412
19.40232456
19.40237506
19.4023436
19.40222923
19.40203169
19.40175145
19.40138972
19.40094844
19.40043017
19.39983808
19.39917582
19.39844747
19.39765743
19.39681034
19.39591096
19.39496414
19.39397467
19.39294723
19.39188635
19.39079632
19.38968114
19.38854455
19.38738991
19.38622027
19.38503831
19.38384639
19.38264654
19.38144048
19.38022966
19.37901528
19.37779836
19.37657973
19.37536012
19.37484941
19.37504913
19.37525025
19.37545371
19.37566046
19.37587143
19.37608759
19.37630989
19.37653929
19.37677678
19.37702332
19.37727991
19.37754755
19.37782722
19.37811993
19.37842667
19.37874843
19.3790862
19.37944092
19.37981355
19.38020499
19.3806161
19.38104769
19.3815005
19.38197521
19.38247238
19.38299247
19.38353581
19.38410257
19.38469276
19.3853062
19.38594247
19.38660093
19.38728066
19.38798047
19.38869885
19.38943395
19.39018359
19.3909452
19.39171585
19.39249224
19.39327066
19.39404705
19.39481698
19.3955757
19.39631815
19.39703901
19.39773278
19.39839378
19.39901631
19.39959465
19.40012319
19.40059649
19.40100942
19.40135718
19.40163546
19.40184048
19.40196907
19.40201879
19.40198765
19.40187472
19.40167973
19.40140315
19.40104619
19.40061073
19.40009931
19.39951504
19.39886152
19.39814278
19.39736315
19.39652719
19.39563962
19.39470519
19.39372864
19.39271459
19.39166749
19.39059158
19.38949082
19.38836888
19.38722909
19.38607445
19.38490762
19.38373092
19.38254637
19.38135565
19.38016022
19.37896125
19.37775976
19.37655656
19.3753524
19.37484755
19.37504353
19.37524089
19.37544055
19.37564342
19.37585045
19.37606256
19.3762807
19.3765058
19.37673884
19.37698076
19.37723255
19.37749516
19.37776959
19.3780568
19.37835778
19.37867349
19.3790049
19.37935295
19.37971855
19.3801026
19.38050595
19.38092938
19.38137363
19.38183934
19.38232708
19.38283728
19.38337028
19.38392623
19.38450515
19.38510685
19.38573091
19.38637672
19.38704336
19.38772965
19.38843413
19.38915496
19.38989001
19.39063675
19.39139232
19.39215347
19.39291656
19.39367761
19.39443229
19.39517592
19.39590356
19.39661
19.39728984
19.39793753
19.39854748
19.39911409
19.39963187
19.4000955
19.40049995
19.40084055
19.40111305
19.40131377
19.4014396
19.40148817
19.40145752
19.40134673
19.40115554
19.40088442
19.40053454
19.40010774
19.3996065
19.39903387
19.39839337
19.39768892
19.39692477
19.39610539
19.39523538
19.3943194
19.39336208
19.39236795
19.39134138
19.3902865
19.3892072
19.38810708
19.38698941
19.38585712
19.38471283
19.38355882
19.38239706
19.38122922
19.38005671
19.37888072
19.37770222
19.37652203
19.37534089
19.37484508
19.37503613
19.37522851
19.37542312
19.37562088
19.37582268
19.37602943
19.37624206
19.37646148
19.37668863
19.37692444
19.37716985
19.37742582
19.3776933
19.37797324
19.37826659
19.3785743
19.3788973
19.37923651
19.37959283
19.37996711
19.38036019
19.38077283
19.38120574
19.38165956
19.38213482
19.38263195
19.38315128
19.38369295
19.38425696
19.38484314
19.38545108
19.38608016
19.38672951
19.38739796
19.38808406
19.38878606
19.38950184
19.39022897
19.39096463
19.39170567
19.39244854
19.39318936
19.39392392
19.39464767
19.39535579
19.39604322
19.3967047
19.39733485
19.39792823
19.3984794
19.39898301
19.39943392
19.39982723
19.40015839
19.4004233
19.40061838
19.40074059
19.40078765
19.40075764
19.40064968
19.40046353
19.40019961
19.39985906
19.39944368
19.39895587
19.39839858
19.39777522
19.39708962
19.39634588
19.39554836
19.39470151
19.39380986
19.39287791
19.39191007
19.39091057
19.38988346
19.38883249
19.38776119
19.38667272
19.38556995
19.38445543
19.38333139
19.38219974
19.38106212
19.37991991
19.37877428
19.37762617
19.3764764
19.37532567
19.37484204
19.37502696
19.37521317
19.37540154
19.37559296
19.37578829
19.37598841
19.37619422
19.3764066
19.37662645
19.37685469
19.37709223
19.37733997
19.37759885
19.37786979
19.3781537
19.3784515
19.3787641
19.37909237
19.37943719
19.37979939
19.38017976
19.38057905
19.38099793
19.38143703
19.38189686
19.38237784
19.38288025
19.38340426
19.38394985
19.38451685
19.38510487
19.38571329
19.38634127
19.38698767
19.3876511
19.38832984
19.38902185
19.38972476
19.39043587
19.3911521
19.39187003
19.39258592
19.39329568
19.39399493
19.394679
19.39534302
19.39598191
19.39659047
19.39716345
19.39769562
19.39818182
19.39861709
19.39899669
19.39931627
19.39957186
19.39976
19.39987779
19.399923
19.39989381
19.39978936
19.3996094
19.39935436
19.39902532
19.398624
19.39815273
19.39761434
19.39701212
19.39634973
19.39563115
19.39486056
19.39404225
19.3931806
19.39227994
19.39134452
19.39037843
19.38938556
19.38836957
19.38733382
19.38628141
19.38521509
19.38413734
19.38305031
19.38195587
19.38085559
19.37975083
19.37864271
19.37753216
19.37641998
19.37530687
19.37483842
19.37501608
19.37519497
19.37537595
19.37555984
19.3757475
19.37593976
19.37613747
19.3763415
19.37655271
19.37677197
19.37700015
19.37723815
19.37748683
19.37774709
19.37801981
19.37830586
19.37860612
19.37892143
19.37925262
19.37960049
19.3799658
19.38034927
19.38075154
19.38117321
19.38161476
19.38207659
19.38255898
19.38306207
19.38358586
19.38413016
19.38469459
19.38527857
19.38588127
19.3865016
19.38713822
19.38778946
19.38845338
19.3891277
19.38980979
19.39049673
19.39118523
19.39187169
19.3925522
19.39322255
19.39387827
19.3945147
19.39512696
19.3957101
19.39625907
19.39676887
19.39723458
19.39765144
19.39801494
19.3983209
19.39856553
19.39874554
19.39885814
19.39890122
19.39887302
19.39877272
19.39860008
19.39835551
19.39804004
19.39765532
19.39720356
19.39668745
19.39611014
19.39547514
19.39478622
19.3940474
19.39326277
19.39243652
19.3915728
19.39067565
19.38974901
19.3887966
19.38782192
19.3868282
19.3858184
19.38479519
19.38376092
19.38271767
19.38166724
19.38061115
19.3795507
19.37848698
19.37742089
19.37635321
19.3752846
19.37483426
19.37500356
19.37517404
19.3753465
19.37552174
19.37570056
19.37588376
19.37607217
19.37626659
19.37646785
19.37667678
19.37689421
19.37712098
19.37735793
19.37760591
19.37786576
19.3781383
19.37842437