# Time	Qx	Qy	Qz	Mx	My	Mz	Wx	Wy	Wz
0	0	0	0	0	0	0	0	0	0
0.001	-2.56495	1.73419e-19	133.975	0	0	0	-0.00977278	1e-15	1.276
0.002	-10.2576	6.93292e-19	267.804	1.66065e-38	-5.52203e-24	1.53132e-40	-0.039085	1.00001e-15	2.55156
0.003	-23.0711	1.55845e-18	401.337	-3.69686e-37	-2.76204e-23	-9.11789e-36	-0.0879182	1.00001e-15	3.82624
0.004	-40.9942	2.76693e-18	534.43	-7.63728e-37	-1.15981e-22	-2.37517e-35	-0.156242	1.00003e-15	5.09959
0.005	-64.0112	4.31601e-18	666.935	-6.79157e-37	-1.15978e-22	-1.42015e-35	-0.244012	1.00004e-15	6.37119
0.006	-92.1018	6.20217e-18	798.707	-1.2237e-36	-1.15978e-22	-4.11211e-35	-0.351176	1.00006e-15	7.64058
0.007	-125.241	8.42113e-18	929.601	-1.85807e-36	-4.69387e-22	-2.45604e-35	-0.477664	1.00008e-15	8.90735
0.008	-163.401	1.09678e-17	1059.47	-2.85659e-36	-4.69382e-22	-8.60845e-35	-0.623398	1.0001e-15	10.171
0.009	-206.547	1.38365e-17	1188.18	-2.62907e-36	-4.69392e-22	-6.50083e-35	-0.788286	1.00013e-15	11.4312
0.01	-254.643	1.70206e-17	1315.58	-5.38805e-36	-1.88303e-21	-5.67969e-35	-0.972227	1.00016e-15	12.6875
0.011	-307.645	2.05128e-17	1441.54	-7.1515e-36	-1.88304e-21	-1.13236e-34	-1.1751	1.00019e-15	13.9395
0.012	-365.508	2.43051e-17	1565.91	-7.66413e-37	-4.69397e-22	-8.33145e-36	-1.39679	1.00023e-15	15.1866
0.013	-428.181	2.83888e-17	1688.56	3.24575e-37	-3.29668e-21	-3.65634e-35	-1.63716	1.00026e-15	16.4286
0.014	-495.611	3.27545e-17	1809.35	-1.28137e-36	-4.69416e-22	-1.71335e-35	-1.89605	1.00031e-15	17.665
0.015	-567.739	3.7392e-17	1928.15	2.99776e-36	-3.29669e-21	5.29092e-35	-2.1733	1.00035e-15	18.8955
0.016	-644.503	4.22908e-17	2044.84	-1.04987e-36	-4.6941e-22	1.59721e-35	-2.46875	1.0004e-15	20.1195
0.017	-725.836	4.74392e-17	2159.27	-1.34751e-36	-6.12396e-21	1.59485e-35	-2.78221	1.00045e-15	21.3367
0.018	-811.67	5.28254e-17	2271.33	-1.65138e-36	-6.12396e-21	1.59203e-35	-3.1135	1.0005e-15	22.5468
0.019	-901.931	5.84366e-17	2380.89	-2.00488e-36	-6.12396e-21	1.01417e-34	-3.46241	1.00056e-15	23.7493
0.02	-996.542	6.42596e-17	2487.83	-2.0573e-35	-6.12396e-21	-3.34604e-34	-3.82873	1.00062e-15	24.9439
0.021	-1095.42	7.02806e-17	2592.03	-2.65729e-35	-6.12396e-21	-2.60445e-34	-4.21224	1.00068e-15	26.1301
0.022	-1198.49	7.64853e-17	2693.39	9.65588e-36	-6.12396e-21	1.28246e-34	-4.6127	1.00074e-15	27.3078
0.023	-1305.66	8.28588e-17	2791.77	5.77767e-36	-6.12396e-21	-9.51087e-35	-5.02989	1.00081e-15	28.4764
0.024	-1416.84	8.93856e-17	2887.08	-3.16e-37	5.18515e-21	7.88539e-35	-5.46356	1.00088e-15	29.6357
0.025	-1531.93	9.605e-17	2979.21	8.3234e-36	-6.12396e-21	9.95434e-36	-5.91344	1.00095e-15	30.7852
0.026	-1650.85	1.02836e-16	3068.05	6.95985e-37	-6.12396e-21	2.29217e-35	-6.37927	1.00103e-15	31.9248
0.027	-1773.49	1.09726e-16	3153.52	2.05523e-37	-6.12396e-21	1.19016e-34	-6.86078	1.0011e-15	33.054
0.028	-1899.75	1.16703e-16	3235.5	-9.49099e-36	-6.12396e-21	1.18594e-34	-7.35769	1.00118e-15	34.1726
0.029	-2029.54	1.23751e-16	3313.91	-2.2191e-36	-6.12396e-21	-2.53725e-34	-7.86971	1.00127e-15	35.2802
0.03	-2162.74	1.3085e-16	3388.65	2.48511e-36	-6.12396e-21	-2.53723e-34	-8.39655	1.00135e-15	36.3766
0.031	-2299.25	1.37983e-16	3459.65	7.2126e-36	-2.87422e-20	-2.53637e-34	-8.93792	1.00144e-15	37.4615
0.032	-2438.95	1.45131e-16	3526.82	4.25509e-36	-2.87422e-20	2.96334e-34	-9.49349	1.00152e-15	38.5345
0.033	-2581.74	1.52276e-16	3590.08	8.56699e-36	-6.12396e-21	2.99904e-34	-10.063	1.00161e-15	39.5955
0.034	-2727.51	1.59398e-16	3649.36	-3.54983e-35	-6.12396e-21	-8.81436e-34	-10.646	1.00171e-15	40.6442
0.035	-2876.13	1.66478e-16	3704.59	1.03423e-35	-5.13604e-20	-3.34414e-35	-11.2423	1.0018e-15	41.6804
0.036	-3027.5	1.73497e-16	3755.69	-5.60723e-36	-5.13604e-20	2.757e-34	-11.8516	1.0019e-15	42.7037
0.037	-3181.49	1.80435e-16	3802.62	1.99475e-35	-5.13604e-20	4.38162e-35	-12.4734	1.002e-15	43.714
0.038	-3337.99	1.87272e-16	3845.3	1.94193e-35	-5.13604e-20	-8.07728e-35	-13.1075	1.0021e-15	44.7111
0.039	-3496.87	1.93989e-16	3883.68	-3.06407e-36	-5.13604e-20	-9.68571e-35	-13.7536	1.0022e-15	45.6947
0.04	-3658.02	2.00566e-16	3917.71	-3.11113e-36	-5.13604e-20	-3.21289e-36	-14.4112	1.0023e-15	46.6647
0.041	-3821.32	2.06982e-16	3947.35	-1.6601e-35	-5.13604e-20	2.02108e-34	-15.08	1.00241e-15	47.6209
0.042	-3986.64	2.13217e-16	3972.55	1.02306e-36	-5.13604e-20	5.20338e-34	-15.7598	1.00252e-15	48.5631
0.043	-4153.85	2.19252e-16	3993.26	-4.52613e-35	-5.13604e-20	-1.61551e-33	-16.45	1.00262e-15	49.4911
0.044	-4322.85	2.25066e-16	4009.46	-3.60045e-35	-5.13604e-20	-1.69866e-33	-17.1505	1.00273e-15	50.4049
0.045	-4493.5	2.30639e-16	4021.11	-4.58969e-35	-5.13604e-20	-1.69903e-33	-17.8607	1.00285e-15	51.3042
0.046	-4665.69	2.35952e-16	4028.18	-8.59824e-35	-5.13604e-20	-1.85322e-33	-18.5805	1.00296e-15	52.1889
0.047	-4839.28	2.40985e-16	4030.66	2.72177e-35	3.91125e-20	-5.68759e-34	-19.3093	1.00307e-15	53.0589
0.048	-5014.16	2.45717e-16	4028.51	2.25956e-35	3.91125e-20	-5.71222e-34	-20.0469	1.00319e-15	53.9141
0.049	-5190.2	2.50129e-16	4021.72	1.90242e-35	-5.13604e-20	-5.73887e-34	-20.7929	1.0033e-15	54.7544
0.05	-5367.28	2.54202e-16	4010.28	-8.12195e-35	3.91125e-20	-1.86846e-33	-21.547	1.00342e-15	55.5796
0.051	-5545.28	2.57917e-16	3994.17	2.44766e-35	-5.13604e-20	-4.76465e-34	-22.3087	1.00354e-15	56.3898
0.052	-5724.08	2.61254e-16	3973.4	-3.21874e-35	-5.13604e-20	-2.44711e-34	-23.0777	1.00366e-15	57.1848
0.053	-5903.57	2.64194e-16	3947.95	1.7378e-35	-5.13604e-20	1.10466e-34	-23.8537	1.00378e-15	57.9646
0.054	-6083.61	2.66719e-16	3917.84	1.77133e-35	-5.13604e-20	5.91423e-34	-24.6363	1.0039e-15	58.7291
0.055	-6264.09	2.6881e-16	3883.05	1.56639e-35	-5.13604e-20	-5.72292e-34	-25.4252	1.00402e-15	59.4783
0.056	-6444.89	2.7045e-16	3843.61	-3.6534e-35	-5.13604e-20	1.59951e-34	-26.22	1.00414e-15	60.2121
0.057	-6625.91	2.7162e-16	3799.52	3.84568e-35	-5.13604e-20	-2.68442e-34	-27.0203	1.00427e-15	60.9306
0.058	-6807.02	2.72304e-16	3750.8	-5.34945e-35	3.91125e-20	-1.85492e-33	-27.8258	1.00439e-15	61.6336
0.059	-6988.11	2.72483e-16	3697.46	8.51387e-36	-5.13604e-20	1.18916e-34	-28.6362	1.00451e-15	62.3213
0.06	-7169.06	2.7214e-16	3639.53	-1.40691e-35	3.91125e-20	7.03489e-35	-29.4511	1.00464e-15	62.9935
0.061	-7349.78	2.71261e-16	3577.02	-1.055e-34	3.91125e-20	-1.21992e-33	-30.2702	1.00476e-15	63.6504
0.062	-7530.14	2.69827e-16	3509.96	-4.44182e-35	3.91125e-20	-1.09769e-33	-31.0931	1.00489e-15	64.2918
0.063	-7710.05	2.67824e-16	3438.39	-1.00496e-34	3.91125e-20	-7.60398e-34	-31.9195	1.00502e-15	64.9179
0.064	-7889.39	2.65236e-16	3362.32	4.85836e-36	-1.41833e-19	2.61903e-34	-32.7492	1.00514e-15	65.5287
0.065	-8068.07	2.62048e-16	3281.81	-2.22112e-36	-1.41833e-19	-4.34792e-34	-33.5816	1.00527e-15	66.1243
0.066	-8245.99	2.58246e-16	3196.88	-9.21682e-35	3.91125e-20	-1.09741e-33	-34.4166	1.00539e-15	66.7046
0.067	-8423.03	2.53814e-16	3107.58	2.68151e-35	-1.41833e-19	-2.6073e-34	-35.2538	1.00552e-15	67.2697
0.068	-8599.11	2.48741e-16	3013.94	1.76415e-35	3.91125e-20	-2.65069e-34	-36.0929	1.00565e-15	67.8198
0.069	-8774.13	2.43011e-16	2916.01	2.20553e-35	3.91125e-20	-2.64752e-34	-36.9336	1.00577e-15	68.3548
0.07	-8948	2.36613e-16	2813.84	2.63344e-35	3.91125e-20	-2.6436e-34	-37.7756	1.0059e-15	68.8748
0.071	-9120.62	2.29534e-16	2707.48	-6.62947e-35	3.91125e-20	-9.1169e-34	-38.6185	1.00602e-15	69.38
0.072	-9291.91	2.21762e-16	2596.97	-3.28431e-35	-1.41833e-19	-1.0789e-34	-39.4622	1.00615e-15	69.8704
0.073	-9461.79	2.13285e-16	2482.37	-4.73744e-35	3.91125e-20	-8.90281e-34	-40.3063	1.00628e-15	70.3462
0.074	-9630.15	2.04092e-16	2363.73	-1.01387e-34	3.91125e-20	-6.08177e-34	-41.1504	1.0064e-15	70.8073
0.075	-9796.94	1.94173e-16	2241.11	-2.0911e-35	3.91125e-20	-5.23773e-34	-41.9945	1.00653e-15	71.254
0.076	-9962.05	1.83518e-16	2114.56	-4.48689e-35	3.91125e-20	-6.61643e-34	-42.8381	1.00665e-15	71.6864
0.077	-10125.4	1.72116e-16	1984.15	-5.48367e-35	3.91125e-20	-5.56994e-34	-43.6809	1.00678e-15	72.1045
0.078	-10287	1.59959e-16	1849.94	1.95581e-35	-1.41833e-19	1.65576e-34	-44.5229	1.0069e-15	72.5084
0.079	-10446.7	1.47038e-16	1711.98	-4.92565e-35	3.91125e-20	-6.43288e-34	-45.3636	1.00702e-15	72.8984
0.08	-10604.4	1.33344e-16	1570.35	-4.2973e-35	3.91125e-20	-7.42773e-34	-46.2028	1.00715e-15	73.2746
0.081	-10760	1.1887e-16	1425.1	-4.70214e-36	-1.41833e-19	-8.73361e-36	-47.0403	1.00727e-15	73.6371
0.082	-10913.6	1.03608e-16	1276.3	9.04114e-36	-1.41833e-19	-1.46699e-34	-47.8759	1.00739e-15	73.9859
0.083	-11065.1	8.75514e-17	1124.03	-4.66845e-35	3.91125e-20	-4.0851e-34	-48.7092	1.00751e-15	74.3214
0.084	-11214.3	7.06937e-17	968.339	-2.502e-35	3.91125e-20	-3.26992e-34	-49.5402	1.00763e-15	74.6436
0.085	-11361.2	5.30288e-17	809.305	5.82525e-37	-1.41833e-19	1.54196e-34	-50.3685	1.00775e-15	74.9526
0.086	-11505.8	3.45511e-17	646.997	1.12217e-35	3.91125e-20	2.8656e-35	-51.1939	1.00787e-15	75.2488
0.087	-11648.1	1.52555e-17	481.485	1.12102e-35	-1.41833e-19	-4.90302e-35	-52.0163	1.00799e-15	75.5321
0.088	-11787.8	-4.86277e-18	312.839	3.79557e-36	3.91125e-20	2.03757e-37	-52.8354	1.00811e-15	75.8027
0.089	-11925.2	-2.58079e-17	141.13	-4.85122e-35	-1.41833e-19	-4.0877e-35	-53.651	1.00822e-15	76.0609
0.09	-12060	-4.75838e-17	-33.5683	-1.7572e-35	-1.41833e-19	2.41288e-36	-54.463	1.00834e-15	76.3068
0.091	-12192.2	-7.01938e-17	-211.185	-7.00891e-36	3.91125e-20	-2.69582e-36	-55.2711	1.00846e-15	76.5406
0.092	-12321.8	-9.36411e-17	-391.647	-7.745e-36	-1.41833e-19	-2.05369e-35	-56.0752	1.00857e-15	76.7624
0.093	-12448.7	-1.17928e-16	-574.881	-7.31633e-36	-1.41833e-19	-2.06478e-35	-56.8751	1.00868e-15	76.9724
0.094	-12573	-1.43057e-16	-760.815	-3.15736e-36	-1.41833e-19	-2.54507e-35	-57.6706	1.0088e-15	77.1708
0.095	-12694.5	-1.6903e-16	-949.375	4.92413e-36	3.91125e-20	-8.67488e-35	-58.4615	1.00891e-15	77.3577
0.096	-12813.3	-1.95848e-16	-1140.49	-1.72497e-36	3.91125e-20	-1.11612e-34	-59.2478	1.00902e-15	77.5334
0.097	-12929.4	-2.23513e-16	-1334.08	4.56836e-37	-1.41833e-19	-1.01674e-34	-60.0292	1.00913e-15	77.6981
0.098	-13042.6	-2.52024e-16	-1530.08	-5.01299e-36	-1.41833e-19	-5.82708e-35	-60.8056	1.00924e-15	77.8518
0.099	-13152.9	-2.81383e-16	-1728.41	-4.42491e-36	-1.41833e-19	1.70014e-35	-61.5769	1.00935e-15	77.9949
0.1	-13260.4	-3.1159e-16	-1929	4.60787e-37	-1.41833e-19	1.26201e-35	-62.3428	1.00945e-15	78.1274
0.101	-13365.1	-3.42643e-16	-2131.78	-2.18579e-36	-1.41833e-19	7.94061e-34	-63.1034	1.00956e-15	78.2495
0.102	-13466.8	-3.74543e-16	-2336.67	-6.82508e-37	-1.41833e-19	8.72879e-34	-63.8585	1.00966e-15	78.3616
0.103	-13565.6	-4.07288e-16	-2543.61	3.03302e-37	-1.41833e-19	1.04848e-34	-64.6079	1.00977e-15	78.4636
0.104	-13661.5	-4.40877e-16	-2752.52	4.54049e-36	-1.41833e-19	4.24742e-34	-65.3516	1.00987e-15	78.5559
0.105	-13754.4	-4.75309e-16	-2963.32	7.20856e-36	-1.41833e-19	6.62857e-34	-66.0894	1.00997e-15	78.6385
0.106	-13844.4	-5.10582e-16	-3175.96	7.16496e-36	-5.03725e-19	9.21723e-34	-66.8212	1.01007e-15	78.7118
0.107	-13931.4	-5.46693e-16	-3390.36	-5.02372e-36	-5.03725e-19	-8.99695e-35	-67.5469	1.01017e-15	78.7758
0.108	-14015.4	-5.83639e-16	-3606.44	9.58375e-36	-5.03725e-19	8.44123e-34	-68.2665	1.01027e-15	78.8308
0.109	-14096.5	-6.2142e-16	-3824.15	2.06219e-36	-5.03725e-19	1.30346e-34	-68.9799	1.01037e-15	78.8769
0.11	-14174.6	-6.6003e-16	-4043.41	2.16957e-35	-5.03725e-19	1.74052e-33	-69.6869	1.01046e-15	78.9143
0.111	-14249.7	-6.99468e-16	-4264.15	1.56757e-37	-5.03725e-19	3.09654e-34	-70.3874	1.01056e-15	78.9433
0.112	-14321.8	-7.3973e-16	-4486.31	-6.86681e-36	-5.03725e-19	-6.29998e-34	-71.0815	1.01065e-15	78.9639
0.113	-14390.9	-7.80811e-16	-4709.82	-7.72524e-36	-5.03725e-19	-2.78978e-34	-71.7691	1.01075e-15	78.9764
0.114	-14457	-8.22709e-16	-4934.61	4.62932e-36	-5.03725e-19	8.2202e-35	-72.45	1.01084e-15	78.9809
0.115	-14520.2	-8.65419e-16	-5160.63	-6.08946e-36	-5.03725e-19	4.44289e-34	-73.1242	1.01093e-15	78.9777
0.116	-14580.4	-9.08937e-16	-5387.8	-4.34495e-36	-5.03725e-19	-2.8515e-34	-73.7917	1.01102e-15	78.9669
0.117	-14637.6	-9.53259e-16	-5616.07	1.15089e-35	-1.41833e-19	2.61262e-34	-74.4523	1.01111e-15	78.9487
0.118	-14691.9	-9.9838e-16	-5845.37	8.4228e-36	-5.03725e-19	2.61382e-34	-75.1062	1.01119e-15	78.9232
0.119	-14743.2	-1.04429e-15	-6075.64	8.59417e-36	-5.03725e-19	2.58818e-34	-75.7531	1.01128e-15	78.8907
0.12	-14791.6	-1.091e-15	-6306.82	5.45441e-36	-1.41833e-19	2.58904e-34	-76.3932	1.01137e-15	78.8513
0.121	-14837	-1.13849e-15	-6538.85	2.45615e-36	-5.03725e-19	2.58949e-34	-77.0262	1.01145e-15	78.8052
0.122	-14879.6	-1.18676e-15	-6771.67	1.4685e-35	-5.03725e-19	5.98233e-34	-77.6523	1.01153e-15	78.7525
0.123	-14919.2	-1.2358e-15	-7005.23	2.99796e-36	-5.03725e-19	-3.57066e-34	-78.2714	1.01162e-15	78.6934
0.124	-14956	-1.28561e-15	-7239.47	-1.71379e-35	-5.03725e-19	-4.01578e-35	-78.8833	1.0117e-15	78.6282
0.125	-14989.9	-1.33618e-15	-7474.33	1.20318e-35	-5.03725e-19	2.58944e-34	-79.4883	1.01178e-15	78.5569
0.126	-15021	-1.38751e-15	-7709.76	-3.19369e-36	-5.03725e-19	5.42861e-34	-80.0861	1.01186e-15	78.4797
0.127	-15049.2	-1.43959e-15	-7945.7	-5.5425e-36	-5.03725e-19	-4.80655e-34	-80.6768	1.01194e-15	78.3967
0.128	-15074.6	-1.49242e-15	-8182.11	1.58702e-35	-1.41833e-19	-2.38343e-34	-81.2604	1.01201e-15	78.3082
0.129	-15097.3	-1.54599e-15	-8418.94	5.87895e-35	-5.03725e-19	1.04755e-33	-81.8369	1.01209e-15	78.2144
0.13	-15117.1	-1.60029e-15	-8656.12	2.63472e-35	-5.03725e-19	1.74875e-33	-82.4062	1.01216e-15	78.1152
0.131	-15134.3	-1.65532e-15	-8893.62	-1.16937e-35	-1.41833e-19	-3.62331e-34	-82.9684	1.01224e-15	78.011
0.132	-15148.7	-1.71108e-15	-9131.38	-7.64329e-36	-1.41833e-19	-3.62439e-34	-83.5235	1.01231e-15	77.9018
0.133	-15160.4	-1.76755e-15	-9369.36	-3.62076e-36	-1.41833e-19	-3.62501e-34	-84.0714	1.01238e-15	77.7878
0.134	-15169.5	-1.82472e-15	-9607.51	3.73435e-37	-1.41833e-19	-3.62519e-34	-84.6122	1.01245e-15	77.6692
0.135	-15175.9	-1.88261e-15	-9845.79	2.12894e-35	-1.41833e-19	-3.32057e-34	-85.1458	1.01252e-15	77.5461
0.136	-15179.7	-1.94119e-15	-10084.2	-7.93158e-36	-1.41833e-19	-3.41541e-34	-85.6724	1.01259e-15	77.4186
0.137	-15180.9	-2.00046e-15	-10322.6	-8.19261e-36	-1.41833e-19	-3.92613e-34	-86.1918	1.01266e-15	77.2869
0.138	-15179.6	-2.06042e-15	-10561	2.54571e-35	-1.41833e-19	-4.86337e-34	-86.7042	1.01273e-15	77.1511
0.139	-15175.7	-2.12106e-15	-10799.3	1.87183e-35	-1.41833e-19	-6.25524e-34	-87.2095	1.0128e-15	77.0114
0.14	-15169.4	-2.18238e-15	-11037.6	-2.94138e-35	-1.41833e-19	4.72171e-34	-87.7077	1.01286e-15	76.8679
0.141	-15160.5	-2.24436e-15	-11275.7	3.57541e-35	-1.41833e-19	2.32966e-34	-88.1989	1.01293e-15	76.7207
0.142	-15149.2	-2.307e-15	-11513.7	1.91642e-37	-1.41833e-19	-5.75356e-35	-88.6831	1.01299e-15	76.57
0.143	-15135.5	-2.3703e-15	-11751.5	2.16436e-35	3.91125e-20	-4.03239e-34	-89.1603	1.01306e-15	76.4158
0.144	-15119.4	-2.43424e-15	-11989.1	1.09987e-35	-1.41833e-19	4.79518e-34	-89.6305	1.01312e-15	76.2584
0.145	-15101	-2.49884e-15	-12226.4	-1.40487e-35	3.91125e-20	1.75535e-35	-90.0939	1.01318e-15	76.0978
0.146	-15080.2	-2.56407e-15	-12463.4	-3.13997e-35	-1.41833e-19	1.72219e-35	-90.5503	1.01324e-15	75.9342
0.147	-15057.2	-2.62993e-15	-12700.1	2.64377e-36	-1.41833e-19	7.14872e-34	-90.9998	1.0133e-15	75.7676
0.148	-15031.9	-2.69642e-15	-12936.4	-4.45553e-36	3.91125e-20	7.14863e-34	-91.4425	1.01336e-15	75.5983
0.149	-15004.3	-2.76352e-15	-13172.3	-1.15008e-35	3.91125e-20	7.14784e-34	-91.8784	1.01342e-15	75.4262
0.15	-14974.6	-2.83125e-15	-13407.8	-1.84911e-35	-1.41833e-19	7.14638e-34	-92.3076	1.01348e-15	75.2516
0.151	-14942.8	-2.89958e-15	-13642.9	-2.44073e-35	3.91125e-20	1.1337e-33	-92.73	1.01353e-15	75.0745
0.152	-14908.8	-2.96852e-15	-13877.5	-3.5322e-35	3.91125e-20	1.13341e-33	-93.1458	1.01359e-15	74.895
0.153	-14872.7	-3.03806e-15	-14111.5	3.42046e-35	3.91125e-20	1.13302e-33	-93.5548	1.01365e-15	74.7133
0.154	-14834.5	-3.10819e-15	-14345.1	2.34596e-35	3.91125e-20	1.13329e-33	-93.9573	1.0137e-15	74.5295
0.155	-14794.4	-3.17891e-15	-14578.1	9.31523e-35	-1.41833e-19	3.70486e-33	-94.3532	1.01376e-15	74.3436
0.156	-14752.2	-3.25021e-15	-14810.5	-6.45725e-38	3.91125e-20	9.85015e-35	-94.7426	1.01381e-15	74.1557
0.157	-14708.1	-3.32209e-15	-15042.3	1.61501e-35	3.91125e-20	-1.21837e-33	-95.1255	1.01386e-15	73.9661
0.158	-14662	-3.39455e-15	-15273.4	2.73443e-35	3.91125e-20	-1.21817e-33	-95.502	1.01392e-15	73.7746
0.159	-14614.1	-3.46757e-15	-15504	3.84919e-35	3.91125e-20	-1.21787e-33	-95.8721	1.01397e-15	73.5815
0.16	-14564.3	-3.54116e-15	-15733.8	-1.87907e-36	-1.41833e-19	1.01065e-33	-96.2359	1.01402e-15	73.3869
0.161	-14512.7	-3.6153e-15	-15963	2.05602e-35	3.91125e-20	5.70131e-34	-96.5934	1.01407e-15	73.1907
0.162	-14459.3	-3.69001e-15	-16191.5	-2.93055e-35	-1.41833e-19	5.7116e-34	-96.9446	1.01412e-15	72.9932
0.163	-14404.2	-3.76526e-15	-16419.3	-3.61405e-35	-1.41833e-19	-6.84803e-35	-97.2896	1.01417e-15	72.7944
0.164	-14347.3	-3.84106e-15	-16646.3	-3.54953e-35	-1.41833e-19	-6.87963e-35	-97.6285	1.01422e-15	72.5944
0.165	-14288.8	-3.9174e-15	-16872.5	-1.19236e-35	-1.41833e-19	3.6822e-34	-97.9613	1.01427e-15	72.3932
0.166	-14228.6	-3.99428e-15	-17098	3.61581e-35	3.91125e-20	-5.89329e-34	-98.288	1.01432e-15	72.191
0.167	-14166.8	-4.0717e-15	-17322.7	-3.91628e-35	3.91125e-20	-5.88998e-34	-98.6087	1.01437e-15	71.9878
0.168	-14103.4	-4.14964e-15	-17546.6	-3.41689e-35	3.91125e-20	-5.89309e-34	-98.9236	1.01442e-15	71.7837
0.169	-14038.4	-4.22812e-15	-17769.7	-2.92134e-35	3.91125e-20	-5.89576e-34	-99.2325	1.01447e-15	71.5787
0.17	-13972	-4.30712e-15	-17992	-2.42967e-35	3.91125e-20	-5.89799e-34	-99.5355	1.01452e-15	71.3731
0.171	-13904	-4.38663e-15	-18213.4	-1.94189e-35	3.91125e-20	-5.8998e-34	-99.8328	1.01456e-15	71.1667
0.172	-13834.6	-4.46667e-15	-18434	-1.45803e-35	3.91125e-20	-5.90119e-34	-100.124	1.01461e-15	70.9597
0.173	-13763.8	-4.54722e-15	-18653.7	-4.585e-36	3.91125e-20	-5.90627e-34	-100.41	1.01466e-15	70.7522
0.174	-13691.6	-4.62829e-15	-18872.6	1.78138e-37	3.91125e-20	-5.90644e-34	-100.691	1.0147e-15	70.5442
0.175	-13618.1	-4.70986e-15	-19090.6	8.52697e-35	-1.41833e-19	6.95072e-34	-100.965	1.01475e-15	70.3358
0.176	-13543.2	-4.79194e-15	-19307.7	5.27875e-35	-1.41833e-19	1.30395e-33	-101.234	1.01479e-15	70.127
0.177	-13467.1	-4.87452e-15	-19523.9	4.34852e-35	-1.41833e-19	1.30404e-33	-101.498	1.01484e-15	69.9179
0.178	-13389.7	-4.95761e-15	-19739.2	1.13688e-34	-1.41833e-19	1.30434e-33	-101.756	1.01488e-15	69.7086
0.179	-13311.1	-5.04119e-15	-19953.5	-4.2748e-35	3.91125e-20	-2.17472e-33	-102.009	1.01493e-15	69.4991
0.18	-13231.3	-5.12527e-15	-20167	-9.93947e-35	3.91125e-20	-2.73654e-33	-102.257	1.01497e-15	69.2895
0.181	-13150.3	-5.20985e-15	-20379.6	9.84725e-35	-1.41833e-19	9.04734e-34	-102.499	1.01502e-15	69.0798
0.182	-13068.2	-5.29492e-15	-20591.2	5.63618e-35	-1.41833e-19	1.27068e-33	-102.736	1.01506e-15	68.8701
0.183	-12985	-5.38049e-15	-20801.9	5.3262e-35	-1.41833e-19	1.3913e-33	-102.968	1.01511e-15	68.6604
0.184	-12900.8	-5.46654e-15	-21011.6	4.33037e-35	-1.41833e-19	1.26686e-33	-103.195	1.01515e-15	68.4509
0.185	-12815.5	-5.55309e-15	-21220.5	2.62353e-35	3.91125e-20	-3.89683e-34	-103.417	1.0152e-15	68.2414
0.186	-12729.2	-5.64012e-15	-21428.3	-3.76436e-35	3.91125e-20	2.79501e-34	-103.634	1.01524e-15	68.0321
0.187	-12641.9	-5.72764e-15	-21635.3	-3.96584e-35	3.91125e-20	2.79222e-34	-103.846	1.01529e-15	67.8231
0.188	-12553.7	-5.81565e-15	-21841.3	1.4979e-36	-1.41833e-19	2.79817e-34	-104.053	1.01533e-15	67.6143
0.189	-12464.6	-5.90415e-15	-22046.3	5.59669e-36	3.91125e-20	-4.69929e-34	-104.256	1.01537e-15	67.4058
0.19	-12374.6	-5.99313e-15	-22250.4	4.98004e-36	3.91125e-20	-1.58921e-35	-104.453	1.01542e-15	67.1977
0.191	-12283.7	-6.08259e-15	-22453.6	5.09045e-36	3.91125e-20	-1.58571e-35	-104.646	1.01546e-15	66.99
0.192	-12192	-6.17254e-15	-22655.8	8.55557e-35	-1.41833e-19	1.26988e-33	-104.834	1.01551e-15	66.7827
0.193	-12099.6	-6.26298e-15	-22857	-1.7411e-35	3.91125e-20	-1.51308e-35	-105.018	1.01555e-15	66.5758
0.194	-12006.3	-6.3539e-15	-23057.3	-3.20511e-35	3.91125e-20	-1.50927e-35	-105.197	1.01559e-15	66.3695
0.195	-11912.3	-6.4453e-15	-23256.7	-3.19492e-35	3.91125e-20	-1.53076e-35	-105.372	1.01564e-15	66.1637
0.196	-11817.6	-6.53719e-15	-23455.1	-3.18467e-35	3.91125e-20	-1.55199e-35	-105.542	1.01568e-15	65.9585
0.197	-11722.2	-6.62957e-15	-23652.6	-3.17438e-35	3.91125e-20	-1.57296e-35	-105.707	1.01573e-15	65.7539
0.198	-11626.2	-6.72243e-15	-23849.1	8.17613e-36	-5.13604e-20	-1.4998e-35	-105.869	1.01577e-15	65.5499
0.199	-11529.5	-6.81578e-15	-24044.7	1.7174e-35	-5.13604e-20	-3.37362e-34	-106.026	1.01582e-15	65.3466
0.2	-11432.2	-6.90961e-15	-24239.3	-1.86574e-36	3.91125e-20	5.34475e-34	-106.178	1.01586e-15	65.144
0.201	-11334.3	-7.00394e-15	-24433	3.37781e-35	-5.13604e-20	5.35397e-34	-106.327	1.01591e-15	64.9421
0.202	-11235.9	-7.09876e-15	-24625.8	3.47606e-35	-5.13604e-20	-6.45345e-35	-106.472	1.01595e-15	64.741
0.203	-11136.9	-7.19407e-15	-24817.7	1.48061e-35	-5.13604e-20	5.26666e-34	-106.612	1.016e-15	64.5406
0.204	-11037.5	-7.28987e-15	-25008.6	1.02277e-35	3.91125e-20	-2.64489e-34	-106.748	1.01604e-15	64.3411
0.205	-10937.6	-7.38616e-15	-25198.6	-1.24621e-35	-5.13604e-20	1.34425e-34	-106.88	1.01609e-15	64.1423
0.206	-10837.2	-7.48296e-15	-25387.7	-1.68447e-35	-5.13604e-20	4.35657e-34	-107.009	1.01613e-15	63.9444
0.207	-10736.4	-7.58025e-15	-25575.9	-5.76046e-37	3.91125e-20	4.36019e-34	-107.133	1.01618e-15	63.7474
0.208	-10635.2	-7.67804e-15	-25763.2	-3.17e-36	3.91125e-20	4.36008e-34	-107.254	1.01623e-15	63.5513
0.209	-10533.6	-7.77633e-15	-25949.6	-5.73912e-36	-5.13604e-20	4.35982e-34	-107.371	1.01627e-15	63.3561
0.21	-10431.6	-7.87513e-15	-26135	1.15868e-35	3.91125e-20	3.36543e-34	-107.484	1.01632e-15	63.1618
0.211	-10329.3	-7.97443e-15	-26319.6	9.64132e-36	3.91125e-20	3.36604e-34	-107.593	1.01637e-15	62.9685
0.212	-10226.8	-8.07425e-15	-26503.4	7.71434e-36	3.91125e-20	3.36653e-34	-107.699	1.01642e-15	62.7762
0.213	-10123.9	-8.17457e-15	-26686.2	5.80579e-36	3.91125e-20	3.36692e-34	-107.801	1.01646e-15	62.5848
0.214	-10020.8	-8.27542e-15	-26868.1	3.91563e-36	3.91125e-20	3.36719e-34	-107.899	1.01651e-15	62.3944
0.215	-9917.39	-8.37677e-15	-27049.2	2.04383e-36	3.91125e-20	3.36735e-34	-107.994	1.01656e-15	62.2051
0.216	-9813.79	-8.47865e-15	-27229.5	1.90357e-37	3.91125e-20	3.36741e-34	-108.085	1.01661e-15	62.0168
0.217	-9710	-8.58106e-15	-27408.9	-1.64484e-36	3.91125e-20	3.36737e-34	-108.173	1.01666e-15	61.8295
0.218	-9606.04	-8.68399e-15	-27587.4	-3.46181e-36	3.91125e-20	3.36724e-34	-108.258	1.01671e-15	61.6433
0.219	-9501.92	-8.78745e-15	-27765.1	-5.26142e-36	3.91125e-20	3.367e-34	-108.339	1.01676e-15	61.4582
0.22	-9397.67	-8.89144e-15	-27942	-7.04175e-36	-6.12391e-21	3.36668e-34	-108.417	1.01681e-15	61.2742
0.221	-9293.3	-8.99598e-15	-28118	-7.02178e-36	-5.13604e-20	3.36694e-34	-108.492	1.01686e-15	61.0912
0.222	-9188.85	-9.10105e-15	-28293.3	5.60929e-35	-5.13604e-20	6.78957e-34	-108.563	1.01691e-15	60.9094
0.223	-9084.32	-9.20667e-15	-28467.7	-4.53652e-35	-6.12391e-21	-1.44758e-33	-108.631	1.01696e-15	60.7287
0.224	-8979.74	-9.31284e-15	-28641.3	1.49583e-35	-5.13604e-20	1.53894e-34	-108.696	1.01702e-15	60.5491
0.225	-8875.12	-9.41956e-15	-28814.1	1.14491e-36	-5.13604e-20	-2.87386e-34	-108.758	1.01707e-15	60.3706
0.226	-8770.5	-9.52684e-15	-28986.2	5.65835e-36	-5.13604e-20	-2.01179e-34	-108.817	1.01712e-15	60.1933
0.227	-8665.88	-9.63468e-15	-29157.5	2.73238e-35	-6.12391e-21	4.11816e-34	-108.873	1.01717e-15	60.0172
0.228	-8561.28	-9.74308e-15	-29328	-1.50773e-35	-5.13604e-20	2.64504e-34	-108.926	1.01723e-15	59.8421
0.229	-8456.73	-9.85206e-15	-29497.7	1.60676e-35	-5.13604e-20	-1.59477e-37	-108.975	1.01728e-15	59.6683
0.23	-8352.24	-9.96161e-15	-29666.7	-8.91915e-36	-5.13604e-20	2.5979e-34	-109.022	1.01734e-15	59.4956
0.231	-8247.83	-1.00717e-14	-29834.9	-1.03226e-35	-5.13604e-20	-2.42368e-34	-109.066	1.01739e-15	59.3241
0.232	-8143.52	-1.01825e-14	-30002.4	1.73787e-35	-5.13604e-20	-2.21558e-34	-109.108	1.01745e-15	59.1538
0.233	-8039.32	-1.02938e-14	-30169.2	-4.96725e-35	-6.12391e-21	-1.6069e-33	-109.146	1.01751e-15	58.9847
0.234	-7935.26	-1.04057e-14	-30335.3	4.36411e-35	-2.87421e-20	6.76481e-34	-109.182	1.01756e-15	58.8167
0.235	-7831.35	-1.05182e-14	-30500.7	1.49008e-35	-6.12391e-21	-2.80717e-34	-109.215	1.01762e-15	58.65
0.236	-7727.6	-1.06313e-14	-30665.3	1.61562e-35	-6.12391e-21	-2.80648e-34	-109.245	1.01768e-15	58.4844
0.237	-7624.04	-1.0745e-14	-30829.3	1.73975e-35	-6.12391e-21	-2.80574e-34	-109.273	1.01774e-15	58.32
0.238	-7520.68	-1.08593e-14	-30992.6	1.8625e-35	-6.12391e-21	-2.80495e-34	-109.297	1.0178e-15	58.1568
0.239	-7417.54	-1.09742e-14	-31155.2	1.98386e-35	-6.12391e-21	-2.80411e-34	-109.32	1.01786e-15	57.9949
0.24	-7314.63	-1.10898e-14	-31317.1	6.91036e-37	-6.12391e-21	7.99328e-35	-109.34	1.01792e-15	57.8341
0.241	-7211.96	-1.1206e-14	-31478.4	3.52796e-37	-6.12391e-21	7.99351e-35	-109.357	1.01798e-15	57.6745
0.242	-7109.57	-1.13229e-14	-31639	1.83365e-38	5.1852e-21	7.99358e-35	-109.372	1.01804e-15	57.5162
0.243	-7007.45	-1.14403e-14	-31799	-3.12379e-37	5.1852e-21	7.99352e-35	-109.384	1.0181e-15	57.359
0.244	-6905.62	-1.15585e-14	-31958.4	1.94497e-35	-6.12391e-21	7.22782e-34	-109.394	1.01817e-15	57.2031
0.245	-6804.11	-1.16772e-14	-32117.2	8.43666e-36	5.1852e-21	-1.51247e-34	-109.401	1.01823e-15	57.0483
0.246	-6702.92	-1.17967e-14	-32275.3	9.04117e-36	-4.69357e-22	-1.51213e-34	-109.406	1.01829e-15	56.8947
0.247	-6602.07	-1.19168e-14	-32432.9	9.63857e-36	-4.69357e-22	-1.51176e-34	-109.409	1.01836e-15	56.7424
0.248	-6501.57	-1.20376e-14	-32589.8	1.02289e-35	-6.12391e-21	4.91712e-34	-109.41	1.01842e-15	56.5912
0.249	-6401.45	-1.2159e-14	-32746.2	2.84198e-35	-3.29663e-21	4.91747e-34	-109.408	1.01849e-15	56.4413
0.25	-6301.7	-1.22812e-14	-32902	2.77638e-35	-4.69357e-22	3.30952e-34	-109.404	1.01856e-15	56.2925
0.251	-6202.35	-1.2404e-14	-33057.2	2.52903e-35	9.44282e-22	3.31063e-34	-109.397	1.01862e-15	56.1449
0.252	-6103.41	-1.25276e-14	-33211.8	2.93169e-36	9.44282e-22	-3.11693e-34	-109.389	1.01869e-15	55.9985
0.253	-6004.89	-1.26518e-14	-33366	-4.5037e-35	9.44282e-22	-8.98331e-34	-109.378	1.01876e-15	55.8533
0.254	-5906.81	-1.27768e-14	-33519.5	7.68134e-36	6.59884e-21	-1.16145e-34	-109.366	1.01883e-15	55.7093
0.255	-5809.17	-1.29024e-14	-33672.6	-9.68545e-37	6.59884e-21	-6.54455e-35	-109.351	1.0189e-15	55.5664
0.256	-5712	-1.30288e-14	-33825.1	-4.01569e-36	6.59884e-21	1.72235e-35	-109.334	1.01897e-15	55.4247
0.257	-5615.31	-1.31559e-14	-33977.1	-9.88326e-37	6.59884e-21	-1.13415e-34	-109.315	1.01904e-15	55.2842
0.258	-5519.1	-1.32838e-14	-34128.6	9.09585e-36	6.59884e-21	1.55751e-34	-109.294	1.01911e-15	55.1449
0.259	-5423.39	-1.34124e-14	-34279.6	4.03001e-36	6.59884e-21	1.60303e-34	-109.271	1.01919e-15	55.0067
0.26	-5328.2	-1.35417e-14	-34430.2	5.87903e-36	6.59884e-21	-2.76819e-35	-109.246	1.01926e-15	54.8697
0.261	-5233.53	-1.36718e-14	-34580.2	6.88168e-36	2.92171e-20	3.75774e-35	-109.219	1.01933e-15	54.7338
0.262	-5139.39	-1.38027e-14	-34729.8	2.61281e-35	6.59884e-21	3.55892e-34	-109.19	1.01941e-15	54.5991
0.263	-5045.8	-1.39343e-14	-34878.9	-5.40306e-36	2.92171e-20	9.57031e-35	-109.159	1.01948e-15	54.4655
0.264	-4952.78	-1.40667e-14	-35027.6	-1.06941e-36	2.92171e-20	-4.48163e-35	-109.127	1.01956e-15	54.3331
0.265	-4860.32	-1.41999e-14	-35175.8	4.61311e-36	2.92171e-20	6.7181e-35	-109.092	1.01964e-15	54.2017
0.266	-4768.45	-1.43339e-14	-35323.6	-7.88374e-36	2.92171e-20	1.10097e-34	-109.056	1.01971e-15	54.0715
0.267	-4677.17	-1.44687e-14	-35471	2.72738e-36	2.92171e-20	8.37086e-35	-109.018	1.01979e-15	53.9424
0.268	-4586.5	-1.46043e-14	-35617.9	-2.33092e-35	6.59884e-21	-3.3349e-34	-108.978	1.01987e-15	53.8145
0.269	-4496.44	-1.47407e-14	-35764.5	-2.32007e-35	6.59884e-21	-1.77493e-34	-108.936	1.01995e-15	53.6876
0.27	-4407.01	-1.48779e-14	-35910.6	1.61624e-35	2.92171e-20	3.24447e-34	-108.893	1.02003e-15	53.5618
0.271	-4318.22	-1.50159e-14	-36056.3	-1.57772e-35	6.59884e-21	-3.18486e-34	-108.848	1.02011e-15	53.4371
0.272	-4230.07	-1.51548e-14	-36201.7	2.31623e-36	5.18353e-20	-3.34008e-35	-108.801	1.0202e-15	53.3135
0.273	-4142.59	-1.52945e-14	-36346.7	-3.50378e-36	5.18353e-20	1.41685e-34	-108.753	1.02028e-15	53.191
0.274	-4055.77	-1.54351e-14	-36491.3	1.53152e-37	5.18353e-20	-5.22162e-35	-108.703	1.02036e-15	53.0696
0.275	-3969.63	-1.55765e-14	-36635.6	3.89091e-36	5.18353e-20	4.95231e-36	-108.651	1.02045e-15	52.9492
0.276	-3884.18	-1.57188e-14	-36779.5	-2.34302e-36	5.18353e-20	-8.344e-36	-108.598	1.02053e-15	52.8298
0.277	-3799.43	-1.5862e-14	-36923	-2.10501e-35	6.59884e-21	-2.84125e-34	-108.543	1.02062e-15	52.7115
0.278	-3715.39	-1.6006e-14	-37066.3	-4.70385e-36	5.18353e-20	4.33443e-35	-108.486	1.0207e-15	52.5943
0.279	-3632.06	-1.61509e-14	-37209.2	3.31531e-36	5.18353e-20	-2.13336e-35	-108.428	1.02079e-15	52.478
0.28	-3549.47	-1.62967e-14	-37351.7	4.78622e-36	5.18353e-20	3.87105e-36	-108.369	1.02088e-15	52.3628
0.281	-3467.61	-1.64434e-14	-37494	2.95349e-37	5.18353e-20	-4.1851e-35	-108.308	1.02097e-15	52.2486
0.282	-3386.5	-1.6591e-14	-37635.9	9.42848e-37	5.18353e-20	2.07595e-36	-108.245	1.02106e-15	52.1355
0.283	-3306.14	-1.67395e-14	-37777.6	-2.87862e-36	5.18353e-20	-2.50678e-35	-108.181	1.02115e-15	52.0233
0.284	-3226.55	-1.6889e-14	-37919	-4.44517e-38	5.18353e-20	3.73574e-35	-108.116	1.02124e-15	51.9121
0.285	-3147.73	-1.70393e-14	-38060.1	-1.05223e-37	5.18353e-20	2.86005e-35	-108.049	1.02133e-15	51.8019
0.286	-3069.7	-1.71906e-14	-38200.9	7.93588e-36	6.59883e-21	1.09318e-34	-107.98	1.02142e-15	51.6926
0.287	-2992.46	-1.73429e-14	-38341.4	4.54867e-36	5.18353e-20	-4.194e-35	-107.911	1.02151e-15	51.5843
0.288	-2916.02	-1.7496e-14	-38481.7	7.98884e-37	5.18353e-20	5.69619e-35	-107.84	1.02161e-15	51.477
0.289	-2840.39	-1.76502e-14	-38621.7	7.56864e-36	6.59883e-21	8.44449e-35	-107.767	1.0217e-15	51.3706
0.29	-2765.58	-1.78053e-14	-38761.5	-2.72241e-36	5.18353e-20	1.35403e-35	-107.693	1.0218e-15	51.2652
0.291	-2691.59	-1.79614e-14	-38901	-3.63202e-36	5.18353e-20	5.90042e-35	-107.618	1.02189e-15	51.1607
0.292	-2618.44	-1.81184e-14	-39040.3	-1.92186e-36	5.18353e-20	-7.49962e-35	-107.542	1.02199e-15	51.0571
0.293	-2546.13	-1.82764e-14	-39179.4	9.72766e-37	5.18353e-20	-7.83704e-35	-107.464	1.02209e-15	50.9544
0.294	-2474.68	-1.84355e-14	-39318.2	-2.79417e-37	5.18353e-20	4.98397e-35	-107.385	1.02218e-15	50.8526