# Time	Qx	Qy	Qz	Mx	My	Mz	Wx	Wy	Wz
0	0	0	0	0	0	0	0	0	0
0.001	-2.56495	3.36021e-20	133.975	-1.24365e-42	9.33459e-78	4.1203e-43	-0.00977278	1e-15	1.2754
0.002	-10.2576	1.34511e-19	267.804	1.06964e-37	1.10441e-23	-1.72092e-39	-0.0390849	9.99999e-16	2.55036
0.003	-23.071	3.02965e-19	401.337	-5.62668e-37	1.10441e-23	-2.88782e-35	-0.0879179	9.99999e-16	3.82444
0.004	-40.9941	5.39334e-19	534.43	-2.15723e-37	1.10441e-23	1.1241e-36	-0.156241	9.99998e-16	5.09719
0.005	-64.011	8.44124e-19	666.935	-8.87377e-38	1.87749e-22	-1.0918e-35	-0.244011	9.99997e-16	6.36818
0.006	-92.1014	1.21797e-18	798.707	-1.10001e-37	1.87749e-22	-1.09283e-35	-0.351172	9.99995e-16	7.63696
0.007	-125.241	1.66164e-18	929.601	1.09442e-36	-1.65662e-22	-3.29396e-35	-0.477657	9.99994e-16	8.90311
0.008	-163.4	2.17602e-18	1059.47	1.09432e-36	5.41159e-22	1.31704e-35	-0.623387	9.99992e-16	10.1662
0.009	-206.545	2.76215e-18	1188.18	1.9048e-36	1.24798e-21	2.87367e-35	-0.788269	9.9999e-16	11.4258
0.01	-254.64	3.42115e-18	1315.58	-4.91907e-36	1.24798e-21	3.99801e-35	-0.972201	9.99987e-16	12.6814
0.011	-307.64	4.1543e-18	1441.54	-6.37067e-36	-1.65661e-22	-1.1564e-34	-1.17507	9.99985e-16	13.9327
0.012	-365.502	4.96299e-18	1565.91	-3.56538e-36	-1.6566e-22	4.43773e-35	-1.39674	9.99982e-16	15.1792
0.013	-428.173	5.8487e-18	1688.56	-4.41469e-36	2.66162e-21	4.43022e-35	-1.63708	9.99979e-16	16.4205
0.014	-495.6	6.81306e-18	1809.35	-5.25543e-36	-1.6566e-22	4.42102e-35	-1.89595	9.99975e-16	17.6563
0.015	-567.725	7.85777e-18	1928.16	-6.09418e-36	-1.6566e-22	4.41024e-35	-2.17317	9.99972e-16	18.886
0.016	-644.484	8.98467e-18	2044.84	8.29591e-37	-1.6566e-22	4.41552e-35	-2.46859	9.99968e-16	20.1093
0.017	-725.813	1.01957e-17	2159.28	8.67598e-36	1.11434e-20	1.5247e-34	-2.78201	9.99964e-16	21.3258
0.018	-811.642	1.14928e-17	2271.34	-5.31369e-36	1.11435e-20	2.51736e-34	-3.11324	9.9996e-16	22.5352
0.019	-901.896	1.28782e-17	2380.9	-3.48814e-37	1.11435e-20	-3.01085e-34	-3.46209	9.99956e-16	23.7369
0.02	-996.499	1.4354e-17	2487.85	-3.68372e-36	-1.65656e-22	-2.19051e-34	-3.82834	9.99951e-16	24.9308
0.021	-1095.37	1.59225e-17	2592.06	4.27878e-37	-1.65656e-22	-2.1908e-34	-4.21176	9.99947e-16	26.1163
0.022	-1198.43	1.75861e-17	2693.41	-2.04353e-35	-1.65656e-22	-3.5639e-34	-4.61214	9.99942e-16	27.2931
0.023	-1305.59	1.93472e-17	2791.8	-1.37359e-35	-1.65656e-22	2.86137e-34	-5.02922	9.99937e-16	28.461
0.024	-1416.75	2.12082e-17	2887.12	-1.91372e-35	2.24526e-20	2.85834e-34	-5.46277	9.99932e-16	29.6194
0.025	-1531.83	2.31719e-17	2979.26	-9.10871e-36	2.24526e-20	-3.12232e-34	-5.91251	9.99927e-16	30.7682
0.026	-1650.73	2.52407e-17	3068.12	-5.29479e-36	-1.65654e-22	3.69712e-34	-6.37819	9.99922e-16	31.9069
0.027	-1773.36	2.74173e-17	3153.59	-3.50846e-35	-1.65654e-22	3.71307e-34	-6.85954	9.99916e-16	33.0353
0.028	-1899.61	2.97045e-17	3235.58	2.98334e-35	-1.65654e-22	-2.45544e-34	-7.35627	9.99911e-16	34.153
0.029	-2029.37	3.2105e-17	3314.01	3.43964e-35	-1.65654e-22	-2.44947e-34	-7.86809	9.99905e-16	35.2598
0.03	-2162.55	3.46215e-17	3388.77	-7.52193e-35	-4.54021e-20	-1.5312e-33	-8.39471	9.999e-16	36.3553
0.031	-2299.03	3.7257e-17	3459.79	-2.56803e-36	-1.65651e-22	1.71066e-34	-8.93583	9.99894e-16	37.4392
0.032	-2438.72	4.00142e-17	3526.98	-1.1253e-35	-1.65651e-22	-2.83383e-34	-9.49114	9.99888e-16	38.5114
0.033	-2581.48	4.2896e-17	3590.27	-8.64399e-35	-1.65651e-22	-1.56923e-33	-10.0603	9.99882e-16	39.5715
0.034	-2727.22	4.59053e-17	3649.58	-1.08308e-34	-1.65651e-22	-7.49652e-34	-10.6431	9.99877e-16	40.6192
0.035	-2875.81	4.90448e-17	3704.84	-1.11521e-34	-1.65651e-22	-1.22202e-33	-11.2391	9.99871e-16	41.6544
0.036	-3027.15	5.23176e-17	3755.98	2.37763e-35	4.50708e-20	-5.72859e-34	-11.8479	9.99865e-16	42.6768
0.037	-3181.1	5.57265e-17	3802.94	1.96668e-35	-1.65648e-22	7.81308e-35	-12.4694	9.99859e-16	43.6861
0.038	-3337.57	5.92743e-17	3845.66	1.81549e-35	9.03072e-20	7.84858e-35	-13.1031	9.99854e-16	44.6822
0.039	-3496.42	6.29639e-17	3884.09	7.20249e-35	9.03072e-20	-5.55927e-34	-13.7487	9.99848e-16	45.6649
0.04	-3657.53	6.6798e-17	3918.17	-6.69566e-35	9.03072e-20	9.74819e-35	-14.4059	9.99842e-16	46.6339
0.041	-3820.78	7.07796e-17	3947.87	6.13908e-35	-1.65644e-22	7.49838e-34	-15.0742	9.99837e-16	47.5891
0.042	-3986.06	7.49113e-17	3973.12	4.79172e-35	-1.65644e-22	7.5082e-34	-15.7534	9.99831e-16	48.5303
0.043	-4153.24	7.91958e-17	3993.9	3.44487e-35	-1.65644e-22	7.51558e-34	-16.4431	9.99826e-16	49.4573
0.044	-4322.19	8.3636e-17	4010.17	2.10101e-35	-1.65644e-22	7.52054e-34	-17.143	9.9982e-16	50.3701
0.045	-4492.8	8.82343e-17	4021.9	7.6066e-36	-1.65644e-22	7.52309e-34	-17.8527	9.99815e-16	51.2683
0.046	-4664.94	9.29934e-17	4029.05	-5.02988e-35	9.03072e-20	-1.14737e-33	-18.5717	9.9981e-16	52.152
0.047	-4838.48	9.79158e-17	4031.61	5.1155e-35	9.03072e-20	-4.71505e-34	-19.2999	9.99805e-16	53.021
0.048	-5013.32	1.03004e-16	4029.55	-5.35447e-35	1.8078e-19	2.11467e-34	-20.0368	9.998e-16	53.8752
0.049	-5189.31	1.0826e-16	4022.86	-4.11587e-35	-1.65641e-22	8.9841e-34	-20.7821	9.99795e-16	54.7145
0.05	-5366.35	1.13687e-16	4011.52	-3.25563e-35	1.8078e-19	9.09585e-34	-21.5353	9.99791e-16	55.5388
0.051	-5544.3	1.19287e-16	3995.53	6.93991e-35	1.8078e-19	-9.61096e-34	-22.2963	9.99786e-16	56.348
0.052	-5723.06	1.25061e-16	3974.87	1.6428e-35	1.8078e-19	-2.50796e-34	-23.0645	9.99782e-16	57.142
0.053	-5902.49	1.31013e-16	3949.55	-7.39559e-35	1.8078e-19	4.6652e-34	-23.8396	9.99778e-16	57.9208
0.054	-6082.49	1.37144e-16	3919.57	-3.93994e-35	1.8078e-19	1.19074e-33	-24.6213	9.99775e-16	58.6843
0.055	-6262.93	1.43456e-16	3884.93	-3.88556e-35	1.8078e-19	-6.4686e-34	-25.4092	9.99771e-16	59.4326
0.056	-6443.69	1.4995e-16	3845.63	-2.61449e-35	-1.65641e-22	9.67926e-35	-26.2031	9.99768e-16	60.1654
0.057	-6624.66	1.5663e-16	3801.7	-2.77945e-35	-1.65641e-22	9.63318e-35	-27.0024	9.99765e-16	60.883
0.058	-6805.73	1.63495e-16	3753.14	-2.94296e-35	-1.65641e-22	9.5845e-35	-27.8069	9.99762e-16	61.5851
0.059	-6986.78	1.70549e-16	3699.97	-3.10497e-35	-1.65641e-22	9.53324e-35	-28.6162	9.9976e-16	62.2718
0.06	-7167.7	1.77791e-16	3642.21	-3.26545e-35	-1.65641e-22	9.47948e-35	-29.43	9.99757e-16	62.9432
0.061	-7348.38	1.85225e-16	3579.89	5.60722e-35	1.8078e-19	8.94063e-34	-30.248	9.99755e-16	63.5991
0.062	-7528.71	1.9285e-16	3513.02	-3.80415e-35	1.8078e-19	-8.64109e-34	-31.0698	9.99754e-16	64.2398
0.063	-7708.59	2.00668e-16	3441.65	5.14623e-35	-1.65635e-22	-3.9163e-35	-31.895	9.99753e-16	64.865
0.064	-7887.91	2.0868e-16	3365.8	5.21053e-35	1.8078e-19	-3.83033e-35	-32.7234	9.99752e-16	65.475
0.065	-8066.57	2.16887e-16	3285.51	7.42844e-35	-1.65635e-22	-2.13859e-35	-33.5547	9.99751e-16	66.0698
0.066	-8244.46	2.2529e-16	3200.81	-4.3955e-35	1.8078e-19	8.31199e-34	-34.3884	9.9975e-16	66.6493
0.067	-8421.49	2.3389e-16	3111.74	-1.6195e-35	1.8078e-19	4.1082e-34	-35.2243	9.9975e-16	67.2137
0.068	-8597.57	2.42687e-16	3018.34	4.57312e-35	1.8078e-19	2.26754e-35	-36.0621	9.99751e-16	67.763
0.069	-8772.58	2.51681e-16	2920.67	4.49425e-35	3.61726e-19	2.34377e-35	-36.9015	9.99752e-16	68.2974
0.07	-8946.45	2.60873e-16	2818.76	-3.66264e-35	3.61726e-19	-3.31593e-34	-37.7421	9.99753e-16	68.8167
0.071	-9119.08	2.70263e-16	2712.66	5.656e-35	-1.65625e-22	6.14473e-34	-38.5837	9.99754e-16	69.3213
0.072	-9290.39	2.79852e-16	2602.43	-1.59759e-35	3.61726e-19	2.93296e-34	-39.4259	9.99756e-16	69.8111
0.073	-9460.28	2.89639e-16	2488.11	-7.12101e-35	3.61726e-19	-1.15223e-35	-40.2686	9.99758e-16	70.2863
0.074	-9628.67	2.99624e-16	2369.76	-3.25308e-35	-1.65618e-22	4.32929e-36	-41.1113	9.99761e-16	70.7469
0.075	-9795.48	3.09807e-16	2247.44	-3.30507e-35	-1.65618e-22	3.83588e-36	-41.9539	9.99764e-16	71.193
0.076	-9960.64	3.20188e-16	2121.2	1.07242e-35	3.61726e-19	2.03346e-35	-42.796	9.99767e-16	71.6249
0.077	-10124.1	3.30766e-16	1991.11	-1.99737e-35	3.61726e-19	-2.27341e-34	-43.6374	9.99771e-16	72.0425
0.078	-10285.7	3.41541e-16	1857.22	3.3251e-35	3.61726e-19	-2.10628e-34	-44.4778	9.99775e-16	72.4461
0.079	-10445.4	3.52512e-16	1719.59	-6.25476e-35	3.61726e-19	-4.01999e-34	-45.317	9.9978e-16	72.8357
0.08	-10603.2	3.63678e-16	1578.3	3.05434e-35	3.61726e-19	-5.74882e-34	-46.1547	9.99785e-16	73.2115
0.081	-10758.9	3.75038e-16	1433.39	-1.68128e-34	-3.62057e-19	-7.2607e-34	-46.9907	9.9979e-16	73.5737
0.082	-10912.6	3.86592e-16	1284.95	-3.67045e-37	-1.65622e-22	-1.14573e-34	-47.8247	9.99796e-16	73.9223
0.083	-11064.1	3.98339e-16	1133.03	-9.92699e-35	-3.62057e-19	-7.89419e-34	-48.6565	9.99802e-16	74.2575
0.084	-11213.5	4.10276e-16	977.709	-1.11632e-34	-3.62057e-19	-8.43732e-34	-49.4858	9.99809e-16	74.5795
0.085	-11360.5	4.22404e-16	819.046	-9.31164e-35	-3.62057e-19	-9.29817e-34	-50.3126	9.99816e-16	74.8884
0.086	-11505.2	4.3472e-16	657.115	1.94377e-35	3.61726e-19	-1.08057e-34	-51.1364	9.99824e-16	75.1844
0.087	-11647.6	4.47223e-16	491.985	-5.2357e-35	-3.62057e-19	-2.43864e-34	-51.9572	9.99832e-16	75.4676
0.088	-11787.6	4.59911e-16	323.727	3.16e-35	-1.65618e-22	7.6815e-35	-52.7747	9.9984e-16	75.7382
0.089	-11925	4.72783e-16	152.411	3.04693e-35	-1.65618e-22	-3.08555e-36	-53.5888	9.99849e-16	75.9964
0.09	-12060	4.85837e-16	-21.8892	3.05111e-35	-1.65618e-22	-2.64053e-36	-54.3991	9.99859e-16	76.2423
0.091	-12192.4	4.99071e-16	-199.103	-9.6057e-36	-1.65618e-22	-2.19744e-36	-55.2056	9.99869e-16	76.4761
0.092	-12322.2	5.12483e-16	-379.158	3.00703e-35	3.61726e-19	-1.63031e-34	-56.0081	9.99879e-16	76.698
0.093	-12449.3	5.26072e-16	-561.982	1.66187e-35	-1.65618e-22	1.08603e-34	-56.8064	9.9989e-16	76.9081
0.094	-12573.8	5.39834e-16	-747.501	4.79615e-35	3.61726e-19	-7.38689e-34	-57.6003	9.99901e-16	77.1067
0.095	-12695.6	5.53768e-16	-935.642	-1.83136e-36	3.61726e-19	-9.50864e-35	-58.3897	9.99913e-16	77.2938
0.096	-12814.6	5.67872e-16	-1126.33	2.28021e-35	3.61726e-19	-5.68764e-34	-59.1744	9.99925e-16	77.4698
0.097	-12930.9	5.82142e-16	-1319.5	6.11439e-36	3.61726e-19	-5.6222e-34	-59.9543	9.99937e-16	77.6347
0.098	-13044.3	5.96578e-16	-1515.07	-5.15285e-37	3.61726e-19	-1.20317e-34	-60.7291	9.9995e-16	77.7888
0.099	-13154.9	6.11176e-16	-1712.98	6.56517e-37	3.61726e-19	1.11704e-34	-61.4989	9.99964e-16	77.9322
0.1	-13262.7	6.25933e-16	-1913.14	-8.16223e-36	3.61726e-19	3.79982e-34	-62.2633	9.99978e-16	78.0651
0.101	-13367.6	6.40847e-16	-2115.48	-9.87837e-37	-1.65618e-22	-6.14853e-34	-63.0224	9.99992e-16	78.1877
0.102	-13469.7	6.55916e-16	-2319.94	-4.86044e-36	3.61726e-19	-6.02159e-34	-63.776	1.00001e-15	78.3002
0.103	-13568.8	6.71137e-16	-2526.45	-1.2591e-35	3.61726e-19	-2.78314e-34	-64.5239	1.00002e-15	78.4027
0.104	-13665	6.86506e-16	-2734.92	-1.13841e-35	3.61726e-19	-2.6643e-34	-65.2661	1.00004e-15	78.4955
0.105	-13758.3	7.02021e-16	-2945.29	7.48663e-35	-3.62057e-19	1.03085e-33	-66.0024	1.00005e-15	78.5788
0.106	-13848.6	7.1768e-16	-3157.5	1.15568e-34	-3.62057e-19	1.43483e-33	-66.7328	1.00007e-15	78.6526
0.107	-13936	7.33478e-16	-3371.46	1.09614e-34	-3.62057e-19	1.44725e-33	-67.4572	1.00009e-15	78.7173
0.108	-14020.4	7.49414e-16	-3587.11	-1.85371e-35	3.61726e-19	4.15686e-34	-68.1754	1.0001e-15	78.7729
0.109	-14101.8	7.65484e-16	-3804.39	-2.53898e-35	3.61726e-19	-4.14937e-34	-68.8873	1.00012e-15	78.8197
0.11	-14180.3	7.81685e-16	-4023.21	4.08571e-35	-3.62057e-19	1.34785e-33	-69.593	1.00014e-15	78.8579
0.111	-14255.8	7.98014e-16	-4243.53	-1.20007e-35	-1.65629e-22	5.57929e-34	-70.2922	1.00016e-15	78.8876
0.112	-14328.3	8.14467e-16	-4465.26	-1.82045e-34	3.61726e-19	-2.01193e-33	-70.985	1.00018e-15	78.909
0.113	-14397.9	8.31042e-16	-4688.35	-3.06536e-35	-1.65625e-22	1.5495e-34	-71.6712	1.0002e-15	78.9223
0.114	-14464.5	8.47736e-16	-4912.72	1.47764e-35	3.61726e-19	1.63128e-34	-72.3509	1.00022e-15	78.9277
0.115	-14528.1	8.64545e-16	-5138.32	6.48023e-35	-1.65625e-22	1.71527e-34	-73.0239	1.00024e-15	78.9254
0.116	-14588.8	8.81466e-16	-5365.08	6.26495e-35	-1.65625e-22	1.72321e-34	-73.6902	1.00026e-15	78.9155
0.117	-14646.5	8.98495e-16	-5592.94	7.71641e-35	-1.65627e-22	-4.88956e-34	-74.3497	1.00028e-15	78.8982
0.118	-14701.2	9.1563e-16	-5821.83	-7.75455e-35	-1.65627e-22	-4.87971e-34	-75.0024	1.0003e-15	78.8737
0.119	-14753	9.32867e-16	-6051.7	-7.15834e-35	-1.65627e-22	-4.88881e-34	-75.6482	1.00032e-15	78.8421
0.12	-14801.9	9.50203e-16	-6282.48	-6.56507e-35	-1.65627e-22	-4.89713e-34	-76.2871	1.00035e-15	78.8037
0.121	-14847.9	9.67634e-16	-6514.12	-5.97483e-35	-1.65627e-22	-4.90468e-34	-76.9192	1.00037e-15	78.7586
0.122	-14891	9.85158e-16	-6746.56	-5.38773e-35	-1.65627e-22	-4.91148e-34	-77.5442	1.00039e-15	78.707
0.123	-14931.2	1.00277e-15	-6979.73	-4.80386e-35	-1.65627e-22	-4.91753e-34	-78.1622	1.00041e-15	78.649
0.124	-14968.5	1.02047e-15	-7213.6	-4.2233e-35	-1.65627e-22	-4.92286e-34	-78.7733	1.00044e-15	78.5849
0.125	-15002.9	1.03825e-15	-7448.09	9.57555e-35	-1.65627e-22	2.08043e-33	-79.3772	1.00046e-15	78.5147
0.126	-15034.6	1.05611e-15	-7683.16	1.76651e-35	-1.65627e-22	-1.12875e-33	-79.9742	1.00049e-15	78.4386
0.127	-15063.4	1.07404e-15	-7918.75	3.07085e-35	-1.65627e-22	-1.12847e-33	-80.564	1.00051e-15	78.3568
0.128	-15089.4	1.09205e-15	-8154.81	1.26324e-34	-1.65627e-22	2.65985e-33	-81.1468	1.00054e-15	78.2695
0.129	-15112.6	1.11012e-15	-8391.29	2.95436e-35	-1.65627e-22	1.27611e-33	-81.7224	1.00056e-15	78.1768
0.13	-15133.1	1.12826e-15	-8628.13	1.51012e-35	-1.65627e-22	1.27636e-33	-82.291	1.00059e-15	78.0789
0.131	-15150.9	1.14647e-15	-8865.3	7.5873e-37	-1.65627e-22	1.27645e-33	-82.8524	1.00061e-15	77.9758
0.132	-15165.9	1.16473e-15	-9102.74	-1.34822e-35	-1.65627e-22	1.27638e-33	-83.4068	1.00064e-15	77.8679
0.133	-15178.3	1.18305e-15	-9340.41	-2.76202e-35	-1.65627e-22	1.27615e-33	-83.954	1.00067e-15	77.7552
0.134	-15188	1.20142e-15	-9578.26	2.79771e-34	-1.65627e-22	3.84717e-33	-84.4942	1.00069e-15	77.6378
0.135	-15195.1	1.21984e-15	-9816.24	9.84671e-35	-1.65627e-22	-2.9462e-34	-85.0272	1.00072e-15	77.516
0.136	-15199.5	1.2383e-15	-10054.3	2.11916e-35	-1.65627e-22	6.78655e-34	-85.5532	1.00075e-15	77.3898
0.137	-15201.4	1.25681e-15	-10292.4	1.38867e-35	-1.65627e-22	6.78843e-34	-86.0721	1.00077e-15	77.2594
0.138	-15200.7	1.27536e-15	-10530.6	6.63335e-36	-1.65627e-22	6.78953e-34	-86.584	1.0008e-15	77.1249
0.139	-15197.5	1.29394e-15	-10768.7	3.20856e-34	-1.65627e-22	3.25038e-33	-87.0888	1.00083e-15	76.9865
0.14	-15191.8	1.31256e-15	-11006.7	-8.86966e-35	-1.65627e-22	-1.04283e-33	-87.5866	1.00086e-15	76.8443
0.141	-15183.6	1.33121e-15	-11244.6	-7.77937e-35	-1.65627e-22	-1.0437e-33	-88.0774	1.00089e-15	76.6985
0.142	-15173	1.34989e-15	-11482.3	-6.69629e-35	-1.65627e-22	-1.04445e-33	-88.5612	1.00092e-15	76.5491
0.143	-15160	1.36859e-15	-11719.9	-4.61749e-35	-1.65627e-22	-1.04595e-33	-89.0381	1.00095e-15	76.3963
0.144	-15144.6	1.38731e-15	-11957.3	-3.54832e-35	-1.65627e-22	-1.04637e-33	-89.508	1.00098e-15	76.2402
0.145	-15126.9	1.40605e-15	-12194.4	-2.48678e-35	-1.65627e-22	-1.04668e-33	-89.9711	1.00101e-15	76.0809
0.146	-15106.8	1.42481e-15	-12431.2	-1.43296e-35	-1.65627e-22	-1.04687e-33	-90.4273	1.00104e-15	75.9187
0.147	-15084.5	1.44358e-15	-12667.7	-3.86933e-36	-1.65627e-22	-1.04697e-33	-90.8766	1.00107e-15	75.7535
0.148	-15059.9	1.46236e-15	-12903.8	6.51218e-36	-1.65627e-22	-1.04695e-33	-91.3192	1.0011e-15	75.5855
0.149	-15033.1	1.48114e-15	-13139.6	1.68142e-35	-1.65627e-22	-1.04684e-33	-91.755	1.00113e-15	75.4148
0.15	-15004.1	1.49993e-15	-13374.9	2.70361e-35	-1.65627e-22	-1.04662e-33	-92.184	1.00116e-15	75.2415
0.151	-14972.9	1.51873e-15	-13609.8	3.81307e-34	-1.65627e-22	1.52367e-33	-92.6064	1.00119e-15	75.0658
0.152	-14939.6	1.53752e-15	-13844.2	4.52137e-35	-1.65627e-22	1.52727e-33	-93.0221	1.00122e-15	74.8877
0.153	-14904.3	1.5563e-15	-14078.2	3.06385e-35	-1.65627e-22	1.52763e-33	-93.4312	1.00125e-15	74.7073
0.154	-14866.8	1.57509e-15	-14311.6	1.61733e-35	-1.65627e-22	1.52785e-33	-93.8337	1.00128e-15	74.5249
0.155	-14827.4	1.59386e-15	-14544.5	1.81896e-36	-1.65627e-22	1.52794e-33	-94.2297	1.00131e-15	74.3403
0.156	-14785.9	1.61262e-15	-14776.8	-1.24236e-35	-1.65627e-22	1.52789e-33	-94.6192	1.00134e-15	74.1538
0.157	-14742.6	1.63137e-15	-15008.5	-2.65536e-35	-1.65627e-22	-1.04369e-33	-95.0022	1.00138e-15	73.9655
0.158	-14697.2	1.6501e-15	-15239.6	-1.71634e-35	3.61726e-19	-1.04386e-33	-95.3789	1.00141e-15	73.7754
0.159	-14650	1.66882e-15	-15470	-7.59418e-35	-1.65627e-22	6.59401e-35	-95.7492	1.00144e-15	73.5837
0.16	-14601	1.68751e-15	-15699.8	1.55791e-34	3.61726e-19	1.17137e-33	-96.1131	1.00147e-15	73.3904
0.161	-14550.1	1.70618e-15	-15929	3.58669e-35	3.61726e-19	-2.96741e-34	-96.4709	1.00151e-15	73.1956
0.162	-14497.4	1.72483e-15	-16157.4	3.83943e-35	-1.65623e-22	-2.96397e-34	-96.8224	1.00154e-15	72.9994
0.163	-14443	1.74344e-15	-16385.1	-1.07881e-34	-1.65622e-22	7.96336e-34	-97.1677	1.00157e-15	72.8019
0.164	-14386.9	1.76203e-15	-16612.1	-1.07899e-34	-1.65622e-22	7.9421e-34	-97.5069	1.0016e-15	72.6032
0.165	-14329	1.78059e-15	-16838.4	-1.05917e-34	-1.65622e-22	7.9196e-34	-97.8401	1.00164e-15	72.4034
0.166	-14269.6	1.79911e-15	-17063.9	-4.61963e-35	3.61726e-19	-7.01334e-34	-98.1672	1.00167e-15	72.2024
0.167	-14208.5	1.8176e-15	-17288.6	5.74007e-35	3.61726e-19	3.67026e-34	-98.4884	1.0017e-15	72.0005
0.168	-14145.8	1.83605e-15	-17512.5	1.34004e-34	-1.65623e-22	-1.14203e-33	-98.8037	1.00173e-15	71.7977
0.169	-14081.5	1.85447e-15	-17735.6	-1.24637e-34	3.61726e-19	-1.14495e-33	-99.1131	1.00177e-15	71.5941
0.17	-14015.8	1.87284e-15	-17957.9	-6.06197e-35	3.61726e-19	-1.15012e-33	-99.4167	1.0018e-15	71.3897
0.171	-13948.5	1.89117e-15	-18179.4	-2.32067e-35	3.61726e-19	-1.11584e-34	-99.7145	1.00183e-15	71.1846
0.172	-13879.9	1.90945e-15	-18400	-2.86742e-34	3.61726e-19	-5.25889e-33	-100.007	1.00187e-15	70.9789
0.173	-13809.7	1.92769e-15	-18619.8	-2.20778e-34	3.61726e-19	-5.26109e-33	-100.293	1.0019e-15	70.7726
0.174	-13738.2	1.94588e-15	-18838.7	-2.08461e-34	3.61726e-19	-4.29361e-33	-100.574	1.00193e-15	70.5658
0.175	-13665.4	1.96402e-15	-19056.8	6.89131e-35	3.61726e-19	-7.21852e-34	-100.849	1.00197e-15	70.3586
0.176	-13591.2	1.98212e-15	-19273.9	-2.46794e-34	3.61726e-19	-5.86407e-33	-101.119	1.002e-15	70.1511
0.177	-13515.7	2.00016e-15	-19490.2	-2.04027e-34	1.8078e-19	-5.86641e-33	-101.384	1.00203e-15	69.9432
0.178	-13439	2.01814e-15	-19705.6	-4.01833e-34	1.8078e-19	-4.7709e-33	-101.643	1.00207e-15	69.7351
0.179	-13361.1	2.03608e-15	-19920.1	-5.21198e-36	-1.65623e-22	-1.07501e-33	-101.896	1.0021e-15	69.5268
0.18	-13281.9	2.05395e-15	-20133.7	-3.17665e-34	1.8078e-19	-5.06036e-33	-102.145	1.00213e-15	69.3183
0.181	-13201.6	2.07177e-15	-20346.4	7.32596e-36	1.8078e-19	1.26702e-33	-102.388	1.00217e-15	69.1098
0.182	-13120.2	2.08953e-15	-20558.1	-1.38798e-34	1.8078e-19	-3.78408e-34	-102.626	1.0022e-15	68.9013
0.183	-13037.6	2.10723e-15	-20768.9	-3.54536e-34	1.8078e-19	-4.60372e-33	-102.859	1.00223e-15	68.6927
0.184	-12954	2.12487e-15	-20978.9	3.22308e-34	-1.81111e-19	3.10798e-33	-103.086	1.00227e-15	68.4843
0.185	-12869.3	2.14245e-15	-21187.8	1.2469e-34	-1.65618e-22	-1.14525e-33	-103.309	1.0023e-15	68.2759
0.186	-12783.7	2.15997e-15	-21395.9	1.33015e-34	-1.65618e-22	-1.14431e-33	-103.527	1.00233e-15	68.0678
0.187	-12697	2.17742e-15	-21603	-1.80173e-34	1.8078e-19	-6.28611e-33	-103.74	1.00237e-15	67.8598
0.188	-12609.4	2.19481e-15	-21809.1	-4.09324e-35	-1.65616e-22	2.32604e-34	-103.948	1.0024e-15	67.6521
0.189	-12520.9	2.21214e-15	-22014.4	3.23388e-35	1.8078e-19	-9.3709e-34	-104.151	1.00243e-15	67.4447
0.19	-12431.5	2.2294e-15	-22218.7	1.28044e-34	1.8078e-19	-1.21395e-34	-104.35	1.00247e-15	67.2376
0.191	-12341.2	2.24659e-15	-22422	-1.89432e-34	1.8078e-19	-4.45791e-33	-104.544	1.0025e-15	67.0309
0.192	-12250.1	2.26372e-15	-22624.4	-1.13162e-35	-1.65614e-22	6.84181e-34	-104.733	1.00253e-15	66.8246
0.193	-12158.2	2.28077e-15	-22825.9	2.23788e-35	1.8078e-19	6.81371e-34	-104.918	1.00257e-15	66.6188
0.194	-12065.5	2.29776e-15	-23026.4	2.75981e-35	1.8078e-19	-1.13569e-33	-105.098	1.0026e-15	66.4135
0.195	-11972.1	2.31468e-15	-23226	1.96092e-34	-1.81111e-19	2.17322e-33	-105.273	1.00263e-15	66.2087
0.196	-11878	2.33154e-15	-23424.6	4.14596e-35	1.8078e-19	6.10612e-34	-105.444	1.00267e-15	66.0044
0.197	-11783.1	2.34832e-15	-23622.3	1.91556e-35	-1.65613e-22	-1.25806e-33	-105.611	1.0027e-15	65.8008
0.198	-11687.6	2.36503e-15	-23819.1	4.10539e-37	1.8078e-19	-5.73424e-34	-105.774	1.00273e-15	65.5977
0.199	-11591.4	2.38168e-15	-24014.9	8.96995e-35	-1.81111e-19	2.9427e-33	-105.932	1.00276e-15	65.3953
0.2	-11494.6	2.39825e-15	-24209.8	-4.99766e-36	1.8078e-19	-1.27386e-33	-106.086	1.0028e-15	65.1936
0.201	-11397.3	2.41475e-15	-24403.7	1.12475e-34	-1.81111e-19	1.92601e-33	-106.236	1.00283e-15	64.9927
0.202	-11299.4	2.43118e-15	-24596.8	4.15404e-35	-1.65609e-22	-3.5617e-35	-106.381	1.00286e-15	64.7924
0.203	-11200.9	2.44754e-15	-24788.9	4.17584e-35	-1.65609e-22	-3.5357e-35	-106.523	1.00289e-15	64.5929
0.204	-11101.9	2.46384e-15	-24980.1	-7.24011e-35	-1.6561e-22	5.37007e-34	-106.66	1.00293e-15	64.3942
0.205	-11002.5	2.48006e-15	-25170.4	-7.57105e-35	1.8078e-19	5.36558e-34	-106.794	1.00296e-15	64.1963
0.206	-10902.5	2.49621e-15	-25359.7	-4.58953e-35	1.8078e-19	1.06699e-33	-106.923	1.00299e-15	63.9993
0.207	-10802.2	2.51228e-15	-25548.2	1.6746e-35	1.8078e-19	-9.97741e-34	-107.049	1.00302e-15	63.8031
0.208	-10701.4	2.52829e-15	-25735.7	-7.46713e-35	1.8078e-19	-5.12142e-34	-107.171	1.00305e-15	63.6078
0.209	-10600.3	2.54423e-15	-25922.4	-5.60419e-35	-1.65611e-22	-4.60983e-35	-107.289	1.00309e-15	63.4134
0.21	-10498.7	2.5601e-15	-26108.2	-5.57718e-35	-1.65611e-22	-4.64247e-35	-107.403	1.00312e-15	63.2199
0.211	-10396.9	2.5759e-15	-26293	-1.27856e-35	9.03073e-20	-4.95551e-35	-107.514	1.00315e-15	63.0273
0.212	-10294.7	2.59163e-15	-26477	6.83139e-35	9.03073e-20	-1.13586e-33	-107.621	1.00318e-15	62.8357
0.213	-10192.2	2.60729e-15	-26660.2	3.58122e-35	-1.6561e-22	3.353e-34	-107.724	1.00321e-15	62.6451
0.214	-10089.4	2.62289e-15	-26842.4	-1.26783e-34	9.03073e-20	-2.2359e-33	-107.824	1.00324e-15	62.4555
0.215	-9986.44	2.63841e-15	-27023.8	1.36458e-35	-1.65611e-22	7.48447e-34	-107.92	1.00327e-15	62.2668
0.216	-9883.2	2.65387e-15	-27204.4	-2.38596e-34	9.03073e-20	-2.95656e-33	-108.013	1.0033e-15	62.0792
0.217	-9779.76	2.66926e-15	-27384.1	-2.06924e-34	9.03073e-20	-2.95886e-33	-108.102	1.00333e-15	61.8927
0.218	-9676.13	2.68459e-15	-27562.9	1.32903e-35	-1.6561e-22	-3.91307e-34	-108.188	1.00336e-15	61.7071
0.219	-9572.34	2.69985e-15	-27740.9	-3.41606e-35	-1.6561e-22	1.10703e-34	-108.271	1.00339e-15	61.5227
0.22	-9468.4	2.71504e-15	-27918.1	-1.29295e-35	9.03073e-20	1.09148e-34	-108.35	1.00342e-15	61.3393
0.221	-9364.34	2.73018e-15	-28094.4	5.38799e-35	-1.65611e-22	-1.08776e-33	-108.426	1.00345e-15	61.157
0.222	-9260.18	2.74525e-15	-28270	-1.25578e-35	9.03073e-20	2.72581e-34	-108.499	1.00348e-15	60.9758
0.223	-9155.93	2.76025e-15	-28444.7	-1.09198e-34	9.03073e-20	-2.23643e-33	-108.568	1.00351e-15	60.7957
0.224	-9051.63	2.7752e-15	-28618.7	6.31684e-35	9.03073e-20	3.34435e-34	-108.635	1.00354e-15	60.6167
0.225	-8947.27	2.79009e-15	-28791.8	-1.1895e-35	9.03073e-20	3.6867e-34	-108.698	1.00357e-15	60.4388
0.226	-8842.9	2.80491e-15	-28964.2	5.17684e-35	-1.65611e-22	3.90034e-34	-108.758	1.0036e-15	60.2621
0.227	-8738.52	2.81968e-15	-29135.8	4.98453e-35	-1.65611e-22	3.90285e-34	-108.816	1.00363e-15	60.0865
0.228	-8634.15	2.8344e-15	-29306.6	6.98825e-35	-1.65611e-22	3.89198e-34	-108.87	1.00366e-15	59.912
0.229	-8529.82	2.84905e-15	-29476.6	-4.7392e-36	-1.6561e-22	3.6715e-34	-108.921	1.00368e-15	59.7387
0.23	-8425.53	2.86365e-15	-29646	-6.49314e-36	-1.6561e-22	3.67124e-34	-108.97	1.00371e-15	59.5666
0.231	-8321.32	2.8782e-15	-29814.5	-8.22856e-36	4.50708e-20	3.67089e-34	-109.015	1.00374e-15	59.3956
0.232	-8217.19	2.8927e-15	-29982.4	-3.80549e-37	-1.65609e-22	3.00665e-34	-109.058	1.00377e-15	59.2258
0.233	-8113.16	2.90714e-15	-30149.5	-1.33869e-34	4.50708e-20	-2.78912e-33	-109.098	1.00379e-15	59.0572
0.234	-8009.26	2.92154e-15	-30315.8	-3.74841e-35	4.50708e-20	5.65863e-34	-109.135	1.00382e-15	58.8897
0.235	-7905.5	2.93589e-15	-30481.5	2.17363e-35	4.50708e-20	4.5555e-34	-109.169	1.00385e-15	58.7234
0.236	-7801.89	2.95019e-15	-30646.5	1.30194e-35	4.50708e-20	3.29721e-34	-109.201	1.00388e-15	58.5583
0.237	-7698.45	2.96445e-15	-30810.8	1.69181e-35	-1.65608e-22	1.87255e-34	-109.23	1.0039e-15	58.3944
0.238	-7595.21	2.97866e-15	-30974.4	1.22347e-35	-1.65607e-22	2.95651e-35	-109.257	1.00393e-15	58.2317
0.239	-7492.17	2.99283e-15	-31137.3	1.41716e-35	-1.65607e-22	2.95507e-35	-109.28	1.00395e-15	58.0702
0.24	-7389.35	3.00696e-15	-31299.6	1.40438e-35	4.50708e-20	2.96113e-35	-109.302	1.00398e-15	57.9098
0.241	-7286.76	3.02106e-15	-31461.2	1.60086e-35	-1.65606e-22	-1.7672e-34	-109.32	1.00401e-15	57.7507
0.242	-7184.43	3.03511e-15	-31622.1	2.75242e-35	2.24526e-20	-1.77252e-34	-109.337	1.00403e-15	57.5927
0.243	-7082.37	3.04913e-15	-31782.4	2.82547e-35	-1.65606e-22	-1.77135e-34	-109.351	1.00406e-15	57.436
0.244	-6980.59	3.06312e-15	-31942.1	3.89021e-35	2.24526e-20	-4.33618e-34	-109.362	1.00408e-15	57.2804
0.245	-6879.11	3.07707e-15	-32101.2	-2.60392e-35	-1.65607e-22	5.78514e-34	-109.371	1.00411e-15	57.126
0.246	-6777.94	3.091e-15	-32259.6	-1.09642e-35	-1.65607e-22	2.87387e-34	-109.378	1.00413e-15	56.9728
0.247	-6677.1	3.1049e-15	-32417.5	1.03711e-35	-1.65607e-22	-2.12057e-35	-109.382	1.00415e-15	56.8209
0.248	-6576.61	3.11877e-15	-32574.7	1.0454e-35	-1.65607e-22	-2.11649e-35	-109.384	1.00418e-15	56.6701
0.249	-6476.46	3.13262e-15	-32731.4	1.05359e-35	-1.65607e-22	-2.11243e-35	-109.384	1.0042e-15	56.5204
0.25	-6376.69	3.14644e-15	-32887.5	1.06166e-35	5.48895e-21	-2.10838e-35	-109.381	1.00423e-15	56.372
0.251	-6277.31	3.16025e-15	-33043	1.06963e-35	-1.65607e-22	-2.10435e-35	-109.376	1.00425e-15	56.2248
0.252	-6178.32	3.17404e-15	-33198	9.11309e-35	-1.65607e-22	1.26469e-33	-109.369	1.00427e-15	56.0787
0.253	-6079.74	3.18782e-15	-33352.4	6.10498e-36	-1.65607e-22	-2.06756e-35	-109.36	1.00429e-15	55.9338
0.254	-5981.58	3.20158e-15	-33506.3	8.65364e-35	-1.65607e-22	1.26504e-33	-109.349	1.00432e-15	55.7901
0.255	-5883.87	3.21533e-15	-33659.6	-2.02508e-35	-1.65607e-22	-1.4244e-34	-109.336	1.00434e-15	55.6476
0.256	-5786.6	3.22907e-15	-33812.4	-2.45619e-35	-1.65607e-22	-1.42361e-34	-109.321	1.00436e-15	55.5062
0.257	-5689.8	3.2428e-15	-33964.7	9.61304e-35	-1.65607e-22	3.50567e-34	-109.303	1.00438e-15	55.366
0.258	-5593.47	3.25654e-15	-34116.5	1.02764e-36	-1.65607e-22	1.87354e-34	-109.284	1.0044e-15	55.2269
0.259	-5497.63	3.27027e-15	-34267.8	3.84948e-37	-1.65607e-22	1.87356e-34	-109.262	1.00443e-15	55.089
0.26	-5402.3	3.284e-15	-34418.6	-2.49734e-37	-1.65607e-22	1.87356e-34	-109.239	1.00445e-15	54.9523
0.261	-5307.47	3.29773e-15	-34568.9	-8.76438e-37	-1.65607e-22	1.87355e-34	-109.213	1.00447e-15	54.8167
0.262	-5213.17	3.31147e-15	-34718.8	-1.4952e-36	-1.65607e-22	1.87351e-34	-109.186	1.00449e-15	54.6822
0.263	-5119.41	3.32522e-15	-34868.2	-2.10605e-36	-1.65607e-22	1.87345e-34	-109.157	1.00451e-15	54.5489
0.264	-5026.19	3.33898e-15	-35017.1	-2.70903e-36	-1.65607e-22	1.87337e-34	-109.126	1.00453e-15	54.4167
0.265	-4933.54	3.35276e-15	-35165.6	-3.3042e-36	-1.65607e-22	2.66153e-35	-109.093	1.00455e-15	54.2856
0.266	-4841.45	3.36655e-15	-35313.7	-1.96056e-35	-1.65607e-22	-3.49953e-36	-109.058	1.00457e-15	54.1556
0.267	-4749.95	3.38036e-15	-35461.3	-1.95949e-35	-1.65607e-22	-3.56016e-36	-109.022	1.00458e-15	54.0268
0.268	-4659.04	3.39419e-15	-35608.5	2.05943e-35	-1.65607e-22	6.39229e-34	-108.984	1.0046e-15	53.8991
0.269	-4568.73	3.40805e-15	-35755.3	5.15747e-35	-1.65607e-22	6.39742e-34	-108.943	1.00462e-15	53.7724
0.27	-4479.04	3.42193e-15	-35901.7	9.49524e-36	-1.65607e-22	-2.9556e-36	-108.902	1.00464e-15	53.6469
0.271	-4389.98	3.43585e-15	-36047.7	4.96821e-35	-1.65607e-22	6.39921e-34	-108.858	1.00466e-15	53.5224
0.272	-4301.55	3.4498e-15	-36193.3	7.04995e-36	-1.65607e-22	2.91403e-34	-108.813	1.00467e-15	53.399
0.273	-4213.77	3.46378e-15	-36338.5	6.21904e-36	-1.65607e-22	2.91422e-34	-108.766	1.00469e-15	53.2767
0.274	-4126.65	3.47781e-15	-36483.4	5.39966e-36	-1.65607e-22	2.91438e-34	-108.718	1.00471e-15	53.1554
0.275	-4040.19	3.49187e-15	-36627.8	4.59177e-36	-1.65607e-22	2.91452e-34	-108.667	1.00472e-15	53.0353
0.276	-3954.41	3.50599e-15	-36772	4.39738e-35	-1.65607e-22	9.34312e-34	-108.616	1.00474e-15	52.9161
0.277	-3869.32	3.52015e-15	-36915.8	-8.84403e-36	-1.65607e-22	2.92211e-34	-108.562	1.00476e-15	52.798
0.278	-3784.92	3.53436e-15	-37059.2	-8.61564e-36	-1.65607e-22	7.3878e-35	-108.508	1.00477e-15	52.681
0.279	-3701.23	3.54863e-15	-37202.3	-8.80887e-36	-1.65607e-22	7.38552e-35	-108.451	1.00479e-15	52.5649
0.28	-3618.26	3.56296e-15	-37345.1	-8.99919e-36	-1.65607e-22	7.38323e-35	-108.393	1.0048e-15	52.4499
0.281	-3536.01	3.57735e-15	-37487.6	-9.18662e-36	-1.65607e-22	7.38092e-35	-108.334	1.00482e-15	52.3359
0.282	-3454.5	3.5918e-15	-37629.8	-9.37118e-36	-1.65607e-22	7.3786e-35	-108.273	1.00483e-15	52.2229
0.283	-3373.73	3.60633e-15	-37771.6	-3.1158e-36	-1.65607e-22	-1.33209e-34	-108.21	1.00485e-15	52.1109
0.284	-3293.72	3.62092e-15	-37913.2	-2.79274e-36	-1.65607e-22	-1.33216e-34	-108.146	1.00486e-15	51.9999
0.285	-3214.47	3.63559e-15	-38054.5	-2.47467e-36	-1.65607e-22	-1.33223e-34	-108.081	1.00487e-15	51.8899
0.286	-3135.99	3.65034e-15	-38195.5	-2.16156e-36	-1.65607e-22	-1.33228e-34	-108.014	1.00489e-15	51.7808
0.287	-3058.29	3.66517e-15	-38336.2	1.03854e-35	-1.65607e-22	2.38068e-34	-107.946	1.0049e-15	51.6727
0.288	-2981.38	3.68009e-15	-38476.7	2.1751e-36	-1.65607e-22	-3.83807e-35	-107.876	1.00491e-15	51.5655
0.289	-2905.27	3.69509e-15	-38616.9	2.23506e-35	-1.65607e-22	2.83049e-34	-107.806	1.00492e-15	51.4593
0.29	-2829.96	3.71019e-15	-38756.8	-7.16776e-36	-1.65607e-22	-5.74996e-36	-107.733	1.00493e-15	51.3541
0.291	-2755.47	3.72539e-15	-38896.5	1.29337e-35	-1.65607e-22	3.15659e-34	-107.66	1.00495e-15	51.2497
0.292	-2681.8	3.74068e-15	-39036	-7.82764e-36	-1.65607e-22	-5.73864e-36	-107.585	1.00496e-15	51.1463
0.293	-2608.96	3.75608e-15	-39175.2	2.2289e-36	-1.65607e-22	-5.75502e-36	-107.509	1.00497e-15	51.0438
0.294	-2536.97	3.77159e-15	-39314.2	1.22852e-35	-1.65607e-22	3.15674e-34	-107.431	1.00498e-15	50.9422
0.295	-2465.82	3.78721e-15	-39453	2.73759e-36	-1.65607e-22	1.54026e-34	-107.352	1.00499e-15	50.8415
0.296	-2395.53	3.80294e-15	-39591.6	-4.21536e-37	-1.65607e-22	-1.03056e-35	-107.272	1.005e-15	50.7416