/*--------------------------------*- C++ -*----------------------------------*\
| =========                 |                                                 |
| \\      /  F ield         | OpenFOAM: The Open Source CFD Toolbox           |
|  \\    /   O peration     | Version:  2312                                  |
|   \\  /    A nd           | Website:  www.openfoam.com                      |
|    \\/     M anipulation  |                                                 |
\*---------------------------------------------------------------------------*/
FoamFile
{
    version     2.0;
    format      ascii;
    arch        "LSB;label=32;scalar=64";
    class       volScalarField;
    location    "0.12";
    object      p;
}
// * * * * * * * * * * * * * * * * * * * * * * * * * * * * * * * * * * * * * //

dimensions      [1 -1 -2 0 0 0 0];

internalField   nonuniform List<scalar> 
299556
(
19.37475327
19.37475984
19.37476645
19.37477313
19.37477991
19.37478682
19.37479389
19.37480114
19.3748086
19.37481631
19.37482428
19.37483256
19.37484116
19.37485012
19.37485947
19.37486922
19.37487942
19.37489009
19.37490124
19.37491292
19.37492513
19.3749379
19.37495125
19.3749652
19.37497977
19.37499495
19.37501076
19.3750272
19.37504428
19.37506197
19.37508028
19.37509917
19.37511863
19.37513862
19.3751591
19.37518001
19.3752013
19.3752229
19.37524473
19.3752667
19.37528872
19.37531068
19.37533247
19.37535396
19.37537503
19.37539553
19.37541533
19.37543428
19.37545223
19.37546904
19.37548456
19.37549864
19.37551116
19.37552198
19.37553099
19.37553807
19.37554314
19.3755461
19.37554692
19.37554552
19.3755419
19.37553603
19.37552793
19.37551762
19.37550515
19.37549057
19.37547396
19.3754554
19.37543499
19.37541282
19.37538902
19.3753637
19.37533698
19.37530898
19.37527981
19.37524959
19.37521844
19.37518646
19.37515375
19.37512042
19.37508653
19.37505219
19.37501745
19.37498239
19.37494706
19.37491151
19.37487579
19.37483995
19.37480401
19.37476802
19.37475977
19.3747794
19.37479915
19.37481912
19.37483938
19.37486002
19.37488113
19.37490279
19.37492509
19.37494811
19.37497194
19.37499667
19.37502238
19.37504915
19.37507707
19.37510623
19.3751367
19.37516857
19.3752019
19.37523678
19.37527327
19.37531144
19.37535134
19.37539303
19.37543654
19.37548191
19.37552917
19.37557831
19.37562933
19.37568222
19.37573692
19.3757934
19.37585155
19.37591129
19.37597249
19.376035
19.37609864
19.3761632
19.37622846
19.37629414
19.37635997
19.37642563
19.37649077
19.37655502
19.37661801
19.37667931
19.37673851
19.37679517
19.37684886
19.37689912
19.37694553
19.37698766
19.3770251
19.37705747
19.37708441
19.37710559
19.37712075
19.37712964
19.37713208
19.37712792
19.37711708
19.37709954
19.37707532
19.37704451
19.37700722
19.37696363
19.37691396
19.37685847
19.37679744
19.37673118
19.37666002
19.37658432
19.37650443
19.37642071
19.37633351
19.37624318
19.37615006
19.37605446
19.3759567
19.37585705
19.37575578
19.37565312
19.3755493
19.3754445
19.3753389
19.37523266
19.37512592
19.37501879
19.3749114
19.37480384
19.37476621
19.37479878
19.37483155
19.37486468
19.37489829
19.37493254
19.37496756
19.3750035
19.3750405
19.3750787
19.37511824
19.37515927
19.37520193
19.37524635
19.37529268
19.37534106
19.37539162
19.3754445
19.37549981
19.37555769
19.37561824
19.37568158
19.37574779
19.37581696
19.37588917
19.37596446
19.37604288
19.37612443
19.3762091
19.37629687
19.37638767
19.37648139
19.37657791
19.37667707
19.37677865
19.3768824
19.37698803
19.3770952
19.37720353
19.37731257
19.37742186
19.37753086
19.37763901
19.37774569
19.37785027
19.37795206
19.37805036
19.37814445
19.3782336
19.37831708
19.37839416
19.37846413
19.37852631
19.37858008
19.37862482
19.37866002
19.3786852
19.37869998
19.37870405
19.37869715
19.37867916
19.37865005
19.37860985
19.37855868
19.37849677
19.3784244
19.37834194
19.3782498
19.37814846
19.37803845
19.37792031
19.37779463
19.377662
19.377523
19.37737824
19.37722829
19.3770737
19.37691502
19.37675274
19.37658734
19.37641924
19.37624885
19.37607653
19.37590259
19.37572733
19.37555101
19.37537385
19.37519606
19.37501784
19.37483934
19.37477256
19.37481786
19.37486345
19.37490953
19.3749563
19.37500394
19.37505266
19.37510266
19.37515413
19.37520727
19.37526229
19.37531936
19.37537871
19.37544051
19.37550497
19.37557228
19.37564262
19.37571618
19.37579314
19.37587366
19.37595791
19.37604603
19.37613816
19.37623441
19.37633488
19.37643965
19.37654876
19.37666224
19.37678007
19.37690221
19.37702856
19.377159
19.37729334
19.37743134
19.37757272
19.37771713
19.37786417
19.37801335
19.37816415
19.37831596
19.37846811
19.37861987
19.37877044
19.378919
19.37906462
19.37920637
19.37934327
19.37947431
19.37959848
19.37971475
19.37982212
19.3799196
19.38000623
19.38008114
19.38014349
19.38019254
19.38022764
19.38024825
19.38025394
19.38024436
19.38021934
19.38017881
19.38012284
19.3800516
19.37996539
19.37986462
19.37974979
19.37962149
19.37948038
19.3793272
19.37916271
19.37898772
19.37880305
19.37860953
19.378408
19.37819924
19.37798404
19.37776315
19.37753726
19.37730703
19.37707306
19.3768359
19.37659606
19.37635398
19.37611006
19.37586467
19.37561813
19.37537072
19.3751227
19.37487432
19.37477876
19.37483652
19.37489465
19.3749534
19.37501303
19.37507378
19.3751359
19.37519965
19.37526528
19.37533304
19.37540318
19.37547596
19.37555163
19.37563043
19.37571263
19.37579845
19.37588815
19.37598196
19.37608009
19.37618278
19.37629021
19.37640259
19.37652008
19.37664283
19.37677096
19.37690458
19.37704375
19.37718848
19.37733878
19.37749457
19.37765575
19.37782214
19.37799352
19.37816958
19.37834996
19.37853421
19.37872183
19.37891219
19.37910462
19.37929836
19.37949254
19.37968624
19.37987844
19.38006807
19.38025397
19.38043494
19.38060973
19.38077706
19.38093562
19.3810841
19.38122123
19.38134573
19.38145639
19.38155209
19.38163175
19.38169443
19.3817393
19.38176565
19.38177297
19.38176078
19.38172887
19.38167715
19.38160572
19.38151479
19.38140474
19.3812761
19.38112951
19.38096573
19.3807856
19.38059006
19.3803801
19.38015674
19.37992103
19.37967405
19.37941684
19.37915043
19.37887581
19.37859394
19.3783057
19.37801194
19.37771342
19.37741084
19.37710486
19.37679603
19.37648487
19.37617184
19.37585734
19.37554175
19.37522539
19.37490857
19.37478478
19.37485465
19.37492496
19.37499603
19.37506815
19.37514163
19.37521677
19.37529388
19.37537326
19.37545522
19.37554007
19.3756281
19.37571963
19.37581496
19.37591438
19.37601821
19.37612671
19.37624019
19.37635891
19.37648313
19.37661311
19.37674906
19.37689121
19.37703972
19.37719475
19.37735643
19.37752482
19.37769996
19.37788183
19.37807037
19.37826543
19.37846681
19.37867423
19.37888733
19.37910568
19.37932873
19.37955586
19.37978633
19.38001933
19.38025392
19.38048906
19.38072364
19.38095643
19.38118612
19.38141131
19.38163054
19.38184231
19.38204504
19.38223718
19.38241712
19.38258331
19.38273421
19.38286836
19.38298438
19.38308097
19.38315699
19.38321143
19.38324343
19.38325236
19.38323765
19.38319904
19.38313643
19.38304992
19.38293979
19.3828065
19.38265068
19.38247312
19.38227473
19.38205655
19.38181971
19.3815654
19.38129488
19.38100943
19.38071033
19.38039887
19.38007628
19.37974377
19.3794025
19.37905355
19.37869792
19.37833655
19.37797029
19.37759992
19.37722613
19.37684953
19.37647067
19.37609006
19.37570813
19.37532528
19.37494189
19.3747906
19.37487213
19.37495419
19.37503714
19.37512131
19.37520707
19.37529477
19.37538477
19.37547742
19.37557307
19.3756721
19.37577485
19.37588168
19.37599295
19.376109
19.37623018
19.37635684
19.3764893
19.37662788
19.37677289
19.37692462
19.37708333
19.37724927
19.37742266
19.37760366
19.37779243
19.37798904
19.37819354
19.37840592
19.37862608
19.37885388
19.37908907
19.37933133
19.37958025
19.3798353
19.38009586
19.38036121
19.38063049
19.38090274
19.38117687
19.38145167
19.38172584
19.38199794
19.38226643
19.38252969
19.38278602
19.38303363
19.38327071
19.38349542
19.38370588
19.38390028
19.38407682
19.38423378
19.38436954
19.38448259
19.38457158
19.38463533
19.38467285
19.38468338
19.38466626
19.38462118
19.38454803
19.38444693
19.38431821
19.3841624
19.38398025
19.38377267
19.38354076
19.38328571
19.38300885
19.3827116
19.38239541
19.38206178
19.38171223
19.38134824
19.38097128
19.38058276
19.38018402
19.37977633
19.37936087
19.37893873
19.3785109
19.37807829
19.3776417
19.37720185
19.3767594
19.3763149
19.37586888
19.37542179
19.37497407
19.37479616
19.37488887
19.37498217
19.37507648
19.37517219
19.3752697
19.37536942
19.37547175
19.3755771
19.37568587
19.37579847
19.37591531
19.37603679
19.37616331
19.37629528
19.37643308
19.37657711
19.37672775
19.37688535
19.37705027
19.37722283
19.37740334
19.37759208
19.37778929
19.37799518
19.3782099
19.37843356
19.3786662
19.37890782
19.37915831
19.3794175
19.37968511
19.3799608
19.38024407
19.38053435
19.38083092
19.38113297
19.38143951
19.38174946
19.38206158
19.3823745
19.38268672
19.38299661
19.38330243
19.38360232
19.38389434
19.38417646
19.38444662
19.38470269
19.38494257
19.38516416
19.38536542
19.38554437
19.38569918
19.38582812
19.38592965
19.38600241
19.38604528
19.38605739
19.38603797
19.3859867
19.38590344
19.38578831
19.38564171
19.38546424
19.38525676
19.38502032
19.38475615
19.38446564
19.3841503
19.38381174
19.38345164
19.3830717
19.38267365
19.3822592
19.38183
19.38138767
19.38093374
19.38046966
19.37999676
19.37951629
19.37902938
19.37853705
19.37804022
19.37753971
19.37703625
19.37653049
19.376023
19.37551432
19.37500493
19.37480144
19.37490475
19.37500872
19.37511381
19.37522047
19.37532913
19.37544025
19.37555429
19.37567169
19.37579291
19.37591839
19.3760486
19.37618398
19.37632499
19.37647207
19.37662565
19.37678618
19.37695407
19.37712973
19.37731355
19.3775059
19.37770711
19.37791751
19.37813735
19.37836688
19.37860626
19.37885563
19.37911502
19.37938444
19.37966376
19.3799528
19.38025126
19.38055874
19.3808747
19.38119851
19.38152937
19.38186635
19.38220839
19.38255425
19.38290258
19.38325183
19.38360033
19.38394627
19.3842877
19.38462255
19.38494864
19.38526373
19.38556547
19.38585152
19.38611951
19.3863671
19.386592
19.38679201
19.38696505
19.38710921
19.38722276
19.38730418
19.38735219
19.38736584
19.38734428
19.38728712
19.38719422
19.38706573
19.38690207
19.38670394
19.38647229
19.3862083
19.38591336
19.38558901
19.38523696
19.38485901
19.38445702
19.38403293
19.38358865
19.38312609
19.38264711
19.38215352
19.38164702
19.38112923
19.38060165
19.38006565
19.37952251
19.37897336
19.37841922
19.377861
19.37729952
19.37673549
19.37616956
19.37560231
19.37503428
19.3748064
19.37491967
19.37503368
19.37514891
19.37526585
19.375385
19.37550685
19.37563189
19.37576061
19.37589353
19.37603113
19.37617391
19.37632236
19.37647699
19.37663827
19.3768067
19.37698274
19.37716687
19.37735951
19.37756111
19.37777207
19.37799277
19.37822354
19.37846469
19.37871646
19.37897907
19.37925263
19.37953722
19.37983281
19.38013929
19.38045645
19.38078398
19.38112142
19.38146821
19.38182363
19.38218682
19.38255677
19.3829323
19.38331207
19.38369458
19.38407814
19.38446093
19.38484094
19.38521603
19.38558394
19.38594227
19.38628853
19.38662018
19.38693462
19.38722924
19.38750147
19.38774878
19.38796875
19.3881591
19.38831771
19.38844267
19.38853232
19.38858525
19.3886004
19.38857683
19.38851414
19.38841215
19.38827103
19.38809125
19.38787359
19.38761909
19.38732905
19.38700501
19.38664868
19.38626192
19.38584673
19.38540517
19.38493936
19.3844514
19.38394342
19.38341744
19.38287546
19.38231935
19.38175089
19.38117172
19.38058336
19.37998719
19.37938447
19.3787763
19.3781637
19.37754754
19.37692861
19.37630762
19.37568519
19.37506192
19.37481101
19.37493356
19.37505689
19.37518155
19.37530806
19.37543696
19.37556878
19.37570405
19.37584332
19.37598712
19.37613598
19.37629046
19.37645107
19.37661837
19.37679287
19.37697511
19.37716559
19.37736481
19.37757327
19.37779142
19.3780197
19.37825853
19.37850827
19.37876926
19.37904175
19.37932598
19.37962209
19.37993014
19.38025012
19.38058192
19.3809253
19.38127992
19.38164531
19.38202085
19.38240576
19.38279913
19.38319985
19.38360665
19.38401809
19.38443253
19.38484817
19.385263
19.38567487
19.38608145
19.38648029
19.38686879
19.38724426
19.38760392
19.38794496
19.38826454
19.38855986
19.3888282
19.3890669
19.3892735
19.38944568
19.38958138
19.38967878
19.38973635
19.38975294
19.38972754
19.38965968
19.38954921
19.38939629
19.38920144
19.3889655
19.38868962
19.38837522
19.38802396
19.3876377
19.38721848
19.38676847
19.3862899
19.38578508
19.38525631
19.38470587
19.38413599
19.38354881
19.38294638
19.38233061
19.38170329
19.38106607
19.38042043
19.37976773
19.37910919
19.37844587
19.37777874
19.37710863
19.3764363
19.37576244
19.37508768
19.37481525
19.37494631
19.37507821
19.37521153
19.37534683
19.37548469
19.37562567
19.37577034
19.37591929
19.37607309
19.37623231
19.37639753
19.37656932
19.37674825
19.3769349
19.37712983
19.37733357
19.37754668
19.37776967
19.37800303
19.37824725
19.37850275
19.37876993
19.37904915
19.37934071
19.37964483
19.37996167
19.38029132
19.38063376
19.38098885
19.38135637
19.38173595
19.38212708
19.3825291
19.38294119
19.38336237
19.38379146
19.38422711
19.38466776
19.38511167
19.3855569
19.38600132
19.38644261
19.3868783
19.38730573
19.38772212
19.38812459
19.38851016
19.38887581
19.3892185
19.38953522
19.38982303
19.3900791
19.39030076
19.39048554
19.39063121
19.39073581
19.39079771
19.39081567
19.39078859
19.390716
19.3905977
19.39043388
19.39022511
19.3899723
19.38967666
19.38933974
19.38896332
19.38854942
19.38810021
19.38761803
19.38710529
19.38656445
19.385998
19.38540838
19.38479799
19.38416911
19.38352396
19.38286457
19.38219286
19.3815106
19.38081938
19.38012064
19.37941569
19.37870567
19.37799159
19.37727435
19.37655477
19.37583356
19.3751114
19.37481909
19.37495785
19.37509751
19.37523867
19.37538193
19.37552789
19.37567716
19.37583035
19.37598806
19.37615091
19.3763195
19.37649445
19.37667636
19.37686583
19.37706348
19.3772699
19.37748566
19.37771134
19.37794749
19.37819463
19.37845327
19.37872388
19.37900687
19.37930262
19.37961145
19.3799336
19.38026925
19.38061848
19.38098127
19.3813575
19.38174691
19.38214913
19.38256362
19.38298969
19.38342646
19.3838729
19.38432776
19.38478962
19.38525682
19.38572752
19.38619967
19.38667101
19.38713908
19.38760125
19.38805471
19.38849651
19.38892359
19.38933278
19.38972087
19.39008463
19.39042087
19.39072646
19.39099838
19.39123381
19.39143009
19.39158488
19.39169608
19.39176196
19.39178119
19.39175262
19.39167572
19.39155031
19.39137659
19.39115516
19.39088697
19.39057335
19.39021593
19.38981661
19.38937754
19.38890103
19.38838958
19.38784574
19.38727214
19.38667141
19.38604616
19.38539893
19.38473216
19.38404818
19.38334916
19.38263714
19.38191398
19.38118137
19.38044084
19.37969377
19.37894135
19.37818468
19.37742469
19.37666223
19.37589807
19.37513291
19.3748225
19.37496811
19.37511467
19.37526279
19.37541313
19.3755663
19.37572295
19.3758837
19.37604921
19.3762201
19.37639702
19.37658062
19.37677152
19.37697038
19.37717781
19.37739444
19.37762089
19.37785775
19.37810561
19.37836501
19.3786365
19.37892054
19.3792176
19.37952806
19.37985226
19.38019046
19.38054285
19.38090952
19.38129044
19.38168549
19.38209442
19.38251682
19.38295212
19.38339962
19.3838584
19.38432737
19.38480522
19.38529046
19.38578136
19.38627598
19.38677217
19.38726755
19.38775955
19.38824539
19.38872212
19.38918665
19.38963574
19.39006606
19.39047424
19.39085688
19.3912106
19.39153212
19.39181825
19.39206602
19.39227264
19.39243561
19.39255274
19.39262221
19.3926426
19.39261272
19.392532
19.39240024
19.39221767
19.39198492
19.391703
19.3913733
19.39099755
19.39057776
19.39011619
19.38961529
19.38907767
19.38850604
19.38790317
19.38727184
19.38661478
19.38593466
19.38523407
19.38451544
19.38378106
19.38303308
19.38227344
19.38150393
19.38072615
19.37994152
19.37915134
19.3783567
19.37755862
19.37675796
19.37595554
19.37515208
19.37482546
19.37497703
19.37512957
19.37528376
19.37544024
19.37559968
19.37576273
19.37593006
19.37610234
19.37628023
19.37646439
19.37665551
19.37685423
19.37706123
19.37727717
19.37750268
19.37773842
19.37798501
19.37824304
19.37851311
19.37879575
19.37909149
19.37940078
19.37972404
19.38006161
19.38041378
19.38078074
19.38116257
19.38155928
19.38197072
19.38239664
19.3828366
19.38329004
19.38375621
19.38423417
19.38472277
19.38522066
19.38572629
19.38623786
19.38675335
19.38727051
19.38778688
19.38829976
19.38880627
19.38930333
19.38978771
19.39025604
19.39070484
19.39113059
19.39152974
19.39189876
19.39223422
19.3925328
19.39279137
19.39300704
19.39317719
19.39329954
19.39337216
19.39339359
19.39336257
19.39327853
19.39314124
19.39295095
19.39270831
19.3924144
19.39207066
19.39167891
19.39124123
19.39076001
19.3902378
19.38967734
19.38908146
19.38845305
19.387795
19.38711018
19.38640138
19.38567128
19.38492244
19.38415724
19.38337791
19.38258649
19.38178482
19.38097458
19.38015726
19.37933417
19.37850648
19.37767522
19.37684131
19.37600557
19.37516876
19.37482796
19.37498455
19.37514214
19.37530143
19.3754631
19.37562781
19.37579627
19.37596915
19.37614713
19.37633092
19.37652119
19.37671864
19.37692396
19.37713783
19.37736093
19.37759394
19.37783752
19.3780923
19.37835892
19.37863798
19.37893005
19.37923564
19.37955525
19.37988931
19.38023817
19.38060213
19.38098138
19.38137602
19.38178605
19.38221133
19.38265159
19.38310639
19.38357516
19.3840571
19.38455126
19.38505645
19.38557129
19.38609416
19.38662321
19.38715635
19.38769126
19.38822539
19.38875595
19.38927996
19.38979424
19.39029544
19.39078007
19.39124453
19.39168518
19.39209832
19.39248032
19.39282761
19.39313675
19.3934045
19.39362786
19.39380411
19.39393089
19.3940062
19.39402853
19.39399656
19.39390971
19.39376775
19.39357092
19.39331992
19.39301585
19.39266022
19.39225491
19.3918021
19.39130424
19.39076399
19.39018419
19.38956778
19.38891774
19.38823709
19.38752878
19.38679572
19.38604067
19.38526628
19.38447502
19.3836692
19.38285091
19.38202207
19.3811844
19.38033945
19.37948857
19.37863296
19.37777369
19.37691169
19.37604782
19.37518285
19.37482998
19.37499062
19.37515229
19.37531571
19.37548156
19.37565054
19.37582335
19.37600071
19.37618331
19.37637185
19.37656706
19.37676963
19.37698027
19.3771997
19.37742859
19.37766765
19.37791755
19.37817896
19.37845252
19.37873885
19.37903852
19.37935208
19.37968004
19.38002282
19.3803808
19.38075428
19.38114347
19.38154847
19.38196928
19.38240575
19.3828576
19.38332442
19.38380557
19.38430028
19.38480755
19.38532617
19.38585473
19.38639156
19.38693476
19.3874822
19.38803148
19.38858
19.38912489
19.38966309
19.39019133
19.39070617
19.39120402
19.39168119
19.39213392
19.39255842
19.39295096
19.39330785
19.39362557
19.39390078
19.39413039
19.3943116
19.39444199
19.39451949
19.39454256
19.39450983
19.39442071
19.39427496
19.39407284
19.39381506
19.39350276
19.39313749
19.39272119
19.3922561
19.39174475
19.39118988
19.39059441
19.38996136
19.3892938
19.38859484
19.38786751
19.38711479
19.38633954
19.38554446
19.38473211
19.38390483
19.3830648
19.38221397
19.38135412
19.38048681
19.37961345
19.37873526
19.37785332
19.37696861
19.37608199
19.37519424
19.3748315
19.3749952
19.37515996
19.37532649
19.3754955
19.37566771
19.37584382
19.37602456
19.37621064
19.37640278
19.37660172
19.37680815
19.37702282
19.37724644
19.37747971
19.37772334
19.37797803
19.37824444
19.37852324
19.37881506
19.37912048
19.37944007
19.37977433
19.38012371
19.38048859
19.38086927
19.38126598
19.38167881
19.38210776
19.38255269
19.38301333
19.38348922
19.38397975
19.38448412
19.38500131
19.3855301
19.38606904
19.38661643
19.38717035
19.38772861
19.38828879
19.38884821
19.38940396
19.38995291
19.39049173
19.3910169
19.39152478
19.39201158
19.39247347
19.3929066
19.39330713
19.39367131
19.39399554
19.39427641
19.39451076
19.39469575
19.39482888
19.39490805
19.39493168
19.39489838
19.39480754
19.39465893
19.39445281
19.39418988
19.39387134
19.39349877
19.39307414
19.39259975
19.39207818
19.39151223
19.39090488
19.39025922
19.3895784
19.38886556
19.38812382
19.38735622
19.38656567
19.38575493
19.38492661
19.38408309
19.38322661
19.38235914
19.3814825
19.38059828
19.37970791
19.37881263
19.37791356
19.37701167
19.37610783
19.37520286
19.37483252
19.37499828
19.3751651
19.37533372
19.37550485
19.37567921
19.37585753
19.37604054
19.37622895
19.37642351
19.37662494
19.37683397
19.37705134
19.37727776
19.37751397
19.37776066
19.37801856
19.37828833
19.37857064
19.37886614
19.37917542
19.37949904
19.37983753
19.38019133
19.38056083
19.38094635
19.38134809
19.38176617
19.38220059
19.3826512
19.38311772
19.3835997
19.38409652
19.38460737
19.38513122
19.38566683
19.38621273
19.38676722
19.38732834
19.38789387
19.38846135
19.38902809
19.38959113
19.3901473
19.39069323
19.39122535
19.39173996
19.39223324
19.39270129
19.39314021
19.39354611
19.39391519
19.3942438
19.39452847
19.39476602
19.39495354
19.39508852
19.39516882
19.39519283
19.39515915
19.39506716
19.39491663
19.39470781
19.39444144
19.39411871
19.39374123
19.393311
19.39283036
19.39230193
19.39172854
19.39111322
19.39045909
19.38976935
19.3890472
19.38829579
19.38751819
19.38671737
19.38589613
19.38505708
19.38420268
19.38333515
19.38245652
19.38156861
19.38067304
19.37977126
19.37886453
19.37795396
19.37704054
19.37612516
19.37520864
19.37483304
19.37499982
19.37516768
19.37533734
19.37550953
19.37568498
19.37586441
19.37604855
19.37623814
19.37643391
19.37663659
19.37684692
19.37706564
19.37729347
19.37753115
19.37777938
19.37803889
19.37831034
19.37859442
19.37889176
19.37920297
19.37952862
19.37986923
19.38022525
19.38059707
19.38098501
19.38138928
19.38181
19.38224716
19.38270062
19.38317009
19.38365513
19.38415511
19.38466921
19.3851964
19.38573543
19.38628483
19.38684288
19.38740761
19.38797679
19.38854795
19.38911836
19.38968506
19.39024486
19.39079435
19.39132996
19.39184796
19.39234448
19.39281563
19.39325746
19.39366606
19.39403761
19.39436841
19.39465501
19.39489416
19.39508295
19.39521886
19.39529972
19.39532392
19.39529006
19.39519749
19.395046
19.39483582
19.39456772
19.39424288
19.39386294
19.39342991
19.39294613
19.39241425
19.39183712
19.39121779
19.39055941
19.3898652
19.38913837
19.3883821
19.38759949
19.38679351
19.38596699
19.38512257
19.38426269
19.38338962
19.38250539
19.38161182
19.38071057
19.37980306
19.37889057
19.37797423
19.37705503
19.37613386
19.37521154
19.37483304
19.37499982
19.37516768
19.37533734
19.37550953
19.37568498
19.37586441
19.37604855
19.37623814
19.37643391
19.37663659
19.37684692
19.37706564
19.37729347
19.37753115
19.37777938
19.37803889
19.37831034
19.37859442
19.37889176
19.37920297
19.37952862
19.37986923
19.38022525
19.38059707
19.38098501
19.38138928
19.38181
19.38224716
19.38270062
19.38317009
19.38365513
19.38415511
19.38466921
19.3851964
19.38573543
19.38628483
19.38684288
19.38740761
19.38797679
19.38854795
19.38911836
19.38968506
19.39024486
19.39079435
19.39132996
19.39184796
19.39234448
19.39281563
19.39325746
19.39366606
19.39403761
19.39436841
19.39465501
19.39489416
19.39508295
19.39521886
19.39529972
19.39532392
19.39529006
19.3951975
19.395046
19.39483582
19.39456772
19.39424288
19.39386294
19.39342991
19.39294613
19.39241425
19.39183712
19.39121779
19.39055941
19.3898652
19.38913837
19.3883821
19.38759949
19.38679352
19.38596699
19.38512257
19.38426269
19.38338962
19.38250539
19.38161182
19.38071057
19.37980306
19.37889057
19.37797423
19.37705503
19.37613386
19.37521154
19.37483252
19.37499828
19.3751651
19.37533372
19.37550485
19.37567921
19.37585753
19.37604054
19.37622895
19.37642351
19.37662494
19.37683397
19.37705134
19.37727776
19.37751397
19.37776066
19.37801856
19.37828833
19.37857064
19.37886614
19.37917542
19.37949904
19.37983753
19.38019133
19.38056083
19.38094635
19.38134809
19.38176617
19.38220059
19.3826512
19.38311772
19.3835997
19.38409652
19.38460737
19.38513122
19.38566683
19.38621273
19.38676722
19.38732834
19.38789387
19.38846135
19.38902809
19.38959113
19.3901473
19.39069323
19.39122535
19.39173996
19.39223324
19.39270129
19.39314021
19.39354611
19.39391519
19.3942438
19.39452847
19.39476602
19.39495354
19.39508852
19.39516882
19.39519283
19.39515915
19.39506716
19.39491663
19.39470781
19.39444144
19.39411871
19.39374123
19.39331101
19.39283037
19.39230193
19.39172854
19.39111322
19.39045909
19.38976935
19.3890472
19.38829579
19.38751819
19.38671737
19.38589613
19.38505708
19.38420268
19.38333515
19.38245652
19.38156861
19.38067304
19.37977126
19.37886453
19.37795396
19.37704054
19.37612516
19.37520864
19.3748315
19.3749952
19.37515996
19.37532649
19.3754955
19.37566771
19.37584382
19.37602456
19.37621064
19.37640278
19.37660172
19.37680816
19.37702282
19.37724644
19.37747971
19.37772334
19.37797803
19.37824444
19.37852324
19.37881506
19.37912048
19.37944007
19.37977433
19.38012371
19.38048859
19.38086927
19.38126598
19.38167881
19.38210776
19.38255269
19.38301333
19.38348922
19.38397975
19.38448411
19.38500131
19.3855301
19.38606903
19.38661643
19.38717035
19.38772861
19.38828879
19.38884821
19.38940396
19.38995291
19.39049173
19.3910169
19.39152478
19.39201158
19.39247348
19.3929066
19.39330713
19.39367131
19.39399554
19.39427641
19.39451076
19.39469575
19.39482888
19.39490805
19.39493168
19.39489839
19.39480755
19.39465894
19.39445281
19.39418989
19.39387134
19.39349877
19.39307414
19.39259975
19.39207818
19.39151223
19.39090489
19.39025922
19.3895784
19.38886556
19.38812382
19.38735622
19.38656567
19.38575493
19.38492661
19.3840831
19.38322661
19.38235914
19.3814825
19.38059828
19.37970791
19.37881263
19.37791356
19.37701167
19.37610783
19.37520286
19.37482998
19.37499062
19.37515229
19.37531571
19.37548156
19.37565054
19.37582336
19.37600071
19.37618331
19.37637186
19.37656706
19.37676963
19.37698028
19.3771997
19.37742859
19.37766765
19.37791755
19.37817896
19.37845252
19.37873885
19.37903852
19.37935208
19.37968004
19.38002282
19.3803808
19.38075428
19.38114347
19.38154847
19.38196928
19.38240575
19.3828576
19.38332442
19.38380557
19.38430028
19.38480755
19.38532617
19.38585473
19.38639156
19.38693476
19.38748219
19.38803148
19.38858
19.38912489
19.38966309
19.39019133
19.39070617
19.39120402
19.39168119
19.39213392
19.39255843
19.39295096
19.39330785
19.39362557
19.39390078
19.39413039
19.39431161
19.39444199
19.39451949
19.39454256
19.39450984
19.39442071
19.39427497
19.39407285
19.39381506
19.39350276
19.39313749
19.39272119
19.3922561
19.39174475
19.39118989
19.39059441
19.38996136
19.3892938
19.38859484
19.38786751
19.38711479
19.38633954
19.38554446
19.38473211
19.38390483
19.3830648
19.38221397
19.38135412
19.38048681
19.37961345
19.37873526
19.37785332
19.37696861
19.37608199
19.37519424
19.37482796
19.37498455
19.37514214
19.37530143
19.3754631
19.37562781
19.37579627
19.37596915
19.37614713
19.37633092
19.37652119
19.37671864
19.37692396
19.37713783
19.37736094
19.37759394
19.37783752
19.3780923
19.37835893
19.37863798
19.37893005
19.37923564
19.37955525
19.37988931
19.38023817
19.38060213
19.38098138
19.38137602
19.38178605
19.38221133
19.38265159
19.38310639
19.38357516
19.3840571
19.38455126
19.38505645
19.38557129
19.38609416
19.38662321
19.38715635
19.38769126
19.38822539
19.38875595
19.38927996
19.38979424
19.39029544
19.39078007
19.39124453
19.39168518
19.39209832
19.39248032
19.39282761
19.39313675
19.3934045
19.39362786
19.39380412
19.39393089
19.3940062
19.39402853
19.39399657
19.39390971
19.39376775
19.39357093
19.39331992
19.39301585
19.39266023
19.39225491
19.3918021
19.39130424
19.39076399
19.39018419
19.38956778
19.38891774
19.38823709
19.38752879
19.38679572
19.38604067
19.38526628
19.38447503
19.3836692
19.38285091
19.38202207
19.3811844
19.38033945
19.37948857
19.37863296
19.37777369
19.37691169
19.37604782
19.37518285
19.37482546
19.37497703
19.37512957
19.37528376
19.37544024
19.37559968
19.37576273
19.37593006
19.37610234
19.37628023
19.3764644
19.37665551
19.37685423
19.37706123
19.37727717
19.37750268
19.37773842
19.37798501
19.37824304
19.37851311
19.37879575
19.37909149
19.37940078
19.37972404
19.38006161
19.38041378
19.38078074
19.38116257
19.38155928
19.38197072
19.38239664
19.3828366
19.38329004
19.38375621
19.38423417
19.38472277
19.38522066
19.38572629
19.38623786
19.38675335
19.38727051
19.38778688
19.38829976
19.38880627
19.38930333
19.38978772
19.39025604
19.39070485
19.39113059
19.39152974
19.39189876
19.39223422
19.3925328
19.39279137
19.39300705
19.3931772
19.39329954
19.39337216
19.3933936
19.39336258
19.39327853
19.39314125
19.39295096
19.39270832
19.3924144
19.39207067
19.39167891
19.39124124
19.39076001
19.39023781
19.38967735
19.38908146
19.38845305
19.387795
19.38711018
19.38640138
19.38567129
19.38492244
19.38415724
19.38337791
19.38258649
19.38178482
19.38097458
19.38015726
19.37933417
19.37850648
19.37767522
19.37684131
19.37600557
19.37516876
19.3748225
19.37496811
19.37511467
19.37526279
19.37541313
19.3755663
19.37572295
19.3758837
19.37604921
19.3762201
19.37639703
19.37658062
19.37677153
19.37697038
19.37717781
19.37739444
19.37762089
19.37785775
19.37810561
19.37836501
19.3786365
19.37892054
19.3792176
19.37952806
19.37985226
19.38019047
19.38054285
19.38090952
19.38129044
19.38168549
19.38209442
19.38251682
19.38295212
19.38339962
19.3838584
19.38432737
19.38480522
19.38529046
19.38578136
19.38627598
19.38677217
19.38726755
19.38775955
19.38824539
19.38872212
19.38918665
19.38963574
19.39006606
19.39047424
19.39085688
19.39121061
19.39153212
19.39181826
19.39206602
19.39227264
19.39243561
19.39255275
19.39262221
19.39264261
19.39261272
19.392532
19.39240025
19.39221768
19.39198492
19.391703
19.39137331
19.39099756
19.39057777
19.39011619
19.38961529
19.38907767
19.38850604
19.38790318
19.38727184
19.38661478
19.38593466
19.38523407
19.38451544
19.38378106
19.38303308
19.38227344
19.38150393
19.38072615
19.37994152
19.37915134
19.3783567
19.37755862
19.37675796
19.37595554
19.37515208
19.37481909
19.37495785
19.37509751
19.37523867
19.37538193
19.37552789
19.37567716
19.37583035
19.37598807
19.37615091
19.3763195
19.37649445
19.37667636
19.37686583
19.37706348
19.3772699
19.37748566