/*--------------------------------*- C++ -*----------------------------------*\
| =========                 |                                                 |
| \\      /  F ield         | OpenFOAM: The Open Source CFD Toolbox           |
|  \\    /   O peration     | Version:  2312                                  |
|   \\  /    A nd           | Website:  www.openfoam.com                      |
|    \\/     M anipulation  |                                                 |
\*---------------------------------------------------------------------------*/
FoamFile
{
    version     2.0;
    format      ascii;
    arch        "LSB;label=32;scalar=64";
    class       surfaceVectorField;
    location    "0.01/beam";
    object      Gamma;
}
// * * * * * * * * * * * * * * * * * * * * * * * * * * * * * * * * * * * * * //

dimensions      [0 0 0 0 0 0 0];

oriented        oriented;

internalField   nonuniform List<vector> 
59
(
(2.87891335e-06 -3.258863946e-19 3.065273024e-12)
(2.871721476e-06 -2.01139124e-19 2.879838707e-12)
(2.85973496e-06 -1.02977088e-19 2.629546871e-12)
(2.842953629e-06 -2.854395198e-20 2.342419414e-12)
(2.821377444e-06 2.537982605e-20 2.043322372e-12)
(2.795006242e-06 6.210592193e-20 1.749700867e-12)
(2.763839829e-06 8.484256333e-20 1.474354758e-12)
(2.727877973e-06 9.656205361e-20 1.224040451e-12)
(2.687120406e-06 9.991954382e-20 1.002915083e-12)
(2.641566824e-06 9.72119926e-20 8.131820776e-13)
(2.591216889e-06 9.036750278e-20 6.538304661e-13)
(2.536070226e-06 8.095665631e-20 5.234700374e-13)
(2.476126425e-06 7.021852219e-20 4.179791126e-13)
(2.411385038e-06 5.909609138e-20 3.348423671e-13)
(2.341845585e-06 4.827645592e-20 2.69853395e-13)
(2.267507548e-06 3.823140364e-20 2.204719377e-13)
(2.188370372e-06 2.925764077e-20 1.830936751e-13)
(2.104433469e-06 2.15133941e-20 1.551970234e-13)
(2.015696213e-06 1.505076789e-20 1.338396959e-13)
(1.922157944e-06 9.844683772e-21 1.174880463e-13)
(1.823817966e-06 5.814638517e-21 1.046247989e-13)
(1.720675544e-06 2.844985456e-21 9.32169166e-14)
(1.612742439e-06 8.009502496e-22 8.267571473e-14)
(1.499980396e-06 -4.632933989e-22 7.190911161e-14)
(1.382439507e-06 -1.095024364e-21 6.082164912e-14)
(1.260065795e-06 -1.240671615e-21 4.91632843e-14)
(1.132913621e-06 -1.042078381e-21 3.684926227e-14)
(1.000924593e-06 -6.363670226e-22 2.393905561e-14)
(8.64157345e-07 -1.575441382e-22 1.060482461e-14)
(7.225490697e-07 2.437952472e-22 -3.011085452e-15)
(5.761626725e-07 6.607369401e-22 -1.650134489e-14)
(4.249309296e-07 1.170413023e-21 -2.952073681e-14)
(2.689210217e-07 1.618624925e-21 -4.184959325e-14)
(1.080613055e-07 1.86643236e-21 -5.339858513e-14)
(-5.757676191e-08 1.768751086e-21 -6.37780258e-14)
(-2.28069918e-07 1.174189368e-21 -7.310981207e-14)
(-4.033409121e-07 -7.421288584e-23 -8.16131553e-14)
(-5.834719153e-07 -2.13776221e-21 -8.938648928e-14)
(-7.683812274e-07 -5.174743625e-21 -9.723097785e-14)
(-9.581554458e-07 -9.335910899e-21 -1.063569173e-13)
(-1.152708586e-06 -1.474690034e-20 -1.181063791e-13)
(-1.352131674e-06 -2.149979512e-20 -1.338019614e-13)
(-1.55633444e-06 -2.962275606e-20 -1.557911181e-13)
(-1.765412341e-06 -3.906672062e-20 -1.870294518e-13)
(-1.979270818e-06 -4.966027165e-20 -2.305318451e-13)
(-2.198009762e-06 -6.109178882e-20 -2.896625194e-13)
(-2.421530323e-06 -7.285168842e-20 -3.682048717e-13)
(-2.649936829e-06 -8.421147378e-20 -4.700898171e-13)
(-2.883126135e-06 -9.416113138e-20 -5.991952803e-13)
(-3.12120701e-06 -1.013901629e-19 -7.5915287e-13)
(-3.36407201e-06 -1.042378976e-19 -9.5244914e-13)
(-3.611834348e-06 -1.006852837e-19 -1.180697098e-12)
(-3.864382281e-06 -8.834854384e-20 -1.442946928e-12)
(-4.121833467e-06 -6.449558957e-20 -1.73615344e-12)
(-4.384071858e-06 -2.612868244e-20 -2.053047461e-12)
(-4.651219564e-06 2.99555953e-20 -2.382236925e-12)
(-4.923156229e-06 1.069348107e-19 -2.706415544e-12)
(-5.200008417e-06 2.078348719e-19 -3.000212829e-12)
(-5.48165146e-06 3.350823293e-19 -3.234879142e-12)
)
;

boundaryField
{
    left
    {
        type            calculated;
        value           uniform (-2.88131068e-06 -4.517173973e-14 -3.183517584e-12);
    }
    right
    {
        type            calculated;
        value           uniform (-5.768216425e-06 -4.516662805e-14 -3.407331667e-12);
    }
    beam
    {
        type            empty;
        value           nonuniform List<vector> 0();
    }
}


// ************************************************************************* //
