/*--------------------------------*- C++ -*----------------------------------*\
| =========                 |                                                 |
| \\      /  F ield         | OpenFOAM: The Open Source CFD Toolbox           |
|  \\    /   O peration     | Version:  2312                                  |
|   \\  /    A nd           | Website:  www.openfoam.com                      |
|    \\/     M anipulation  |                                                 |
\*---------------------------------------------------------------------------*/
FoamFile
{
    version     2.0;
    format      ascii;
    arch        "LSB;label=32;scalar=64";
    class       surfaceVectorField;
    location    "0.01/beam";
    object      K;
}
// * * * * * * * * * * * * * * * * * * * * * * * * * * * * * * * * * * * * * //

dimensions      [0 -1 0 0 0 0 0];

oriented        oriented;

internalField   nonuniform List<vector> 
59
(
(-1.09397199e-24 2.71329965e-08 4.455830038e-15)
(-2.10242877e-24 5.321920773e-08 7.371956234e-15)
(-3.171409007e-24 7.704812334e-08 9.054477744e-15)
(-4.201369522e-24 9.819487994e-08 9.781863469e-15)
(-4.749772362e-24 1.16306979e-07 9.798949119e-15)
(-5.068690944e-24 1.313980808e-07 9.314419028e-15)
(-5.736047489e-24 1.435701031e-07 8.500870323e-15)
(-5.945387668e-24 1.530805749e-07 7.496692418e-15)
(-5.925273489e-24 1.602190019e-07 6.409128966e-15)
(-6.030651888e-24 1.653270928e-07 5.318016258e-15)
(-5.99622991e-24 1.687429419e-07 4.279807564e-15)
(-6.122674379e-24 1.707974538e-07 3.331593583e-15)
(-5.989280403e-24 1.717873561e-07 2.494916057e-15)
(-5.902954276e-24 1.719748309e-07 1.779241268e-15)
(-5.717586368e-24 1.715835392e-07 1.185014968e-15)
(-5.54035539e-24 1.708005873e-07 7.062701433e-16)
(-5.340955257e-24 1.697785998e-07 3.327874834e-16)
(-5.130831122e-24 1.686365799e-07 5.183070906e-17)
(-4.906913267e-24 1.674631207e-07 -1.504997804e-16)
(-4.680265594e-24 1.663221458e-07 -2.882525839e-16)
(-4.431157602e-24 1.65260633e-07 -3.748915689e-16)
(-4.177323357e-24 1.643059197e-07 -4.227936036e-16)
(-3.927238637e-24 1.63471061e-07 -4.4295131e-16)
(-3.672366449e-24 1.627590625e-07 -4.448039682e-16)
(-3.411903624e-24 1.621675714e-07 -4.361670449e-16)
(-3.139581113e-24 1.616910506e-07 -4.232309723e-16)
(-2.864776811e-24 1.613231975e-07 -4.105913545e-16)
(-2.585268125e-24 1.610567009e-07 -4.012986103e-16)
(-2.306824395e-24 1.608861841e-07 -3.969050141e-16)
(1.018549634e-25 1.608075769e-07 -3.973841138e-16)
(2.510263065e-24 1.608200695e-07 -4.02387766e-16)
(2.786580025e-24 1.60927018e-07 -4.125212068e-16)
(3.063711216e-24 1.611346874e-07 -4.279598447e-16)
(3.335584424e-24 1.614514899e-07 -4.472531959e-16)
(3.607621229e-24 1.618878347e-07 -4.673810369e-16)
(3.871242577e-24 1.624564867e-07 -4.836810484e-16)
(4.119683181e-24 1.631672327e-07 -4.897851412e-16)
(4.390466873e-24 1.640294139e-07 -4.775632954e-16)
(4.647889145e-24 1.65045861e-07 -4.371169103e-16)
(4.898631233e-24 1.662100298e-07 -3.568366583e-16)
(5.124635747e-24 1.67499269e-07 -2.235833347e-16)
(5.351419167e-24 1.688783961e-07 -2.301239565e-17)
(5.56192719e-24 1.702894606e-07 2.598866632e-16)
(5.771472398e-24 1.716478791e-07 6.4000928e-16)
(5.935192515e-24 1.728330232e-07 1.13103144e-15)
(6.148360054e-24 1.736922921e-07 1.743956615e-15)
(6.197719032e-24 1.740297849e-07 2.48524435e-15)
(6.391071911e-24 1.736111767e-07 3.354503184e-15)
(6.386093284e-24 1.721539015e-07 4.341721054e-15)
(6.274700014e-24 1.693399411e-07 5.42404427e-15)
(6.356549343e-24 1.648096055e-07 6.562176287e-15)
(6.169538145e-24 1.581909727e-07 7.696456162e-15)
(5.804185199e-24 1.490936598e-07 8.742855962e-15)
(5.293877488e-24 1.3717119e-07 9.589034263e-15)
(4.769390051e-24 1.221007324e-07 1.009093702e-14)
(3.913187334e-24 1.037153438e-07 1.007018847e-14)
(3.155513993e-24 8.192232558e-08 9.313093996e-15)
(2.251352173e-24 5.700283186e-08 7.571621669e-15)
(1.065267571e-24 2.931130438e-08 4.567555876e-15)
)
;

boundaryField
{
    left
    {
        type            calculated;
        value           uniform (-1.176467574e-33 -9.629649722e-35 5.035018489e-37);
    }
    right
    {
        type            calculated;
        value           uniform (-1.097467413e-33 6.853074601e-36 -2.304116882e-36);
    }
    beam
    {
        type            empty;
        value           nonuniform List<vector> 0();
    }
}


// ************************************************************************* //
