/*--------------------------------*- C++ -*----------------------------------*\
| =========                 |                                                 |
| \\      /  F ield         | OpenFOAM: The Open Source CFD Toolbox           |
|  \\    /   O peration     | Version:  2312                                  |
|   \\  /    A nd           | Website:  www.openfoam.com                      |
|    \\/     M anipulation  |                                                 |
\*---------------------------------------------------------------------------*/
FoamFile
{
    version     2.0;
    format      ascii;
    arch        "LSB;label=32;scalar=64";
    class       surfaceVectorField;
    location    "0.01/beam";
    object      M;
}
// * * * * * * * * * * * * * * * * * * * * * * * * * * * * * * * * * * * * * //

dimensions      [1 2 -2 0 0 0 0];

oriented        oriented;

internalField   nonuniform List<vector> 
59
(
(-4.580860929e-25 1.636624363e-11 2.687694392e-18)
(-7.39777341e-25 3.210108103e-11 4.446660979e-18)
(-8.854945583e-25 4.647434932e-11 5.461534481e-18)
(-9.305817861e-25 5.922977685e-11 5.900283439e-18)
(-9.056258111e-25 7.015474146e-11 5.910589326e-18)
(-8.353906643e-25 7.925748279e-11 5.61832761e-18)
(-7.3943131e-25 8.659947621e-11 5.127606462e-18)
(-6.323454518e-25 9.233605966e-11 4.52190044e-18)
(-5.245586045e-25 9.664185887e-11 3.865897416e-18)
(-4.230504451e-25 9.972298778e-11 3.207753523e-18)
(-3.320513376e-25 1.017833802e-10 2.581520585e-18)
(-2.536923221e-25 1.03022633e-10 2.009571194e-18)
(-1.885427731e-25 1.036197282e-10 1.504899027e-18)
(-1.360999838e-25 1.037328103e-10 1.073214014e-18)
(-9.52105504e-26 1.034967886e-10 7.147850274e-19)
(-6.434694244e-26 1.03024523e-10 4.260128488e-19)
(-4.185397425e-26 1.024080745e-10 2.007333336e-19)
(-2.608600637e-26 1.017192241e-10 3.126413673e-20)
(-1.55154202e-26 1.010114099e-10 -9.077878591e-20)
(-8.799560091e-27 1.003231898e-10 -1.738693524e-19)
(-4.816394497e-27 9.968290021e-11 -2.261287788e-19)
(-2.656486292e-27 9.910703048e-11 -2.550226188e-19)
(-1.639780097e-27 9.860345542e-11 -2.671814679e-19)
(-1.234565758e-27 9.817398788e-11 -2.682989679e-19)
(-1.094807626e-27 9.781720875e-11 -2.630892987e-19)
(-1.004530074e-27 9.752977804e-11 -2.552864424e-19)
(-8.583202458e-28 9.730789421e-11 -2.476624032e-19)
(-6.209934516e-28 9.714714718e-11 -2.420571509e-19)
(-3.140337818e-28 9.704429385e-11 -2.394069958e-19)
(2.279669286e-29 9.699687906e-11 -2.396959823e-19)
(3.48250691e-28 9.700441447e-11 -2.427141152e-19)
(6.197117934e-28 9.706892429e-11 -2.488264644e-19)
(7.929851435e-28 9.719418753e-11 -2.58138834e-19)
(8.416711734e-28 9.738527836e-11 -2.697763122e-19)
(7.950765856e-28 9.764847543e-11 -2.819171426e-19)
(7.549295224e-28 9.799147839e-11 -2.917490794e-19)
(9.364129373e-28 9.842019042e-11 -2.954309803e-19)
(1.711981785e-27 9.894024607e-11 -2.88058931e-19)
(3.587940376e-27 9.955335269e-11 -2.636622343e-19)
(7.29062113e-27 1.00255563e-10 -2.152383063e-19)
(1.376617916e-26 1.010332141e-10 -1.348617626e-19)
(2.419772434e-26 1.018650842e-10 -1.38801754e-20)
(4.000704807e-26 1.027162186e-10 1.567605812e-19)
(6.280221297e-26 1.035355976e-10 3.860452266e-19)
(9.432868027e-26 1.042504599e-10 6.822229236e-19)
(1.363402296e-25 1.047687589e-10 1.051930811e-18)
(1.904606818e-25 1.049723298e-10 1.499065196e-18)
(2.579108348e-25 1.047198312e-10 2.023389954e-18)
(3.391941055e-25 1.038408232e-10 2.618865947e-18)
(4.337323805e-25 1.021434817e-10 3.27170815e-18)
(5.392644945e-25 9.941084669e-11 3.958213433e-18)
(6.513175947e-25 9.541858004e-11 4.642395152e-18)
(7.625757116e-25 8.993120828e-11 5.273568831e-18)
(8.620779563e-25 8.273974141e-11 5.783971695e-18)
(9.345973509e-25 7.364945237e-11 6.086712358e-18)
(9.598648876e-25 6.255964337e-11 6.074197063e-18)
(9.124228168e-25 4.941439988e-11 5.617528201e-18)
(7.611372697e-25 3.438331014e-11 4.567096387e-18)
(4.703780277e-25 1.768016845e-11 2.755085862e-18)
)
;

boundaryField
{
    left
    {
        type            calculated;
        value           uniform (-1.419255189e-36 -5.808469897e-38 3.034304607e-40);
    }
    right
    {
        type            calculated;
        value           uniform (-1.323951765e-36 4.133678656e-39 -1.389552048e-39);
    }
    beam
    {
        type            empty;
        value           nonuniform List<vector> 0();
    }
}


// ************************************************************************* //
