/*--------------------------------*- C++ -*----------------------------------*\
| =========                 |                                                 |
| \\      /  F ield         | OpenFOAM: The Open Source CFD Toolbox           |
|  \\    /   O peration     | Version:  2312                                  |
|   \\  /    A nd           | Website:  www.openfoam.com                      |
|    \\/     M anipulation  |                                                 |
\*---------------------------------------------------------------------------*/
FoamFile
{
    version     2.0;
    format      ascii;
    arch        "LSB;label=32;scalar=64";
    class       pointVectorField;
    location    "0.01/beam";
    object      pointW;
}
// * * * * * * * * * * * * * * * * * * * * * * * * * * * * * * * * * * * * * //

dimensions      [0 1 0 0 0 0 0];

internalField   nonuniform List<vector> 
1952
(
(7.745075285e-10 2.275489981e-17 -3.666207962e-12)
(7.596253633e-10 2.233456475e-17 -3.595766046e-12)
(7.155520095e-10 2.103352215e-17 -3.387144731e-12)
(6.439797661e-10 1.908195824e-17 -3.048354538e-12)
(5.476600712e-10 1.604619215e-17 -2.592418901e-12)
(4.302931347e-10 1.25767452e-17 -2.036854192e-12)
(2.963904629e-10 8.67361738e-18 -1.40301464e-12)
(1.510988521e-10 4.33680869e-18 -7.152636773e-13)
(-1.55544091e-17 0 -2.275490284e-17)
(-1.510988826e-10 -4.33680869e-18 7.152191166e-13)
(-2.963904917e-10 -8.67361738e-18 1.402972573e-12)
(-4.302931606e-10 -1.25767452e-17 2.036816028e-12)
(-5.476600932e-10 -1.604619215e-17 2.592386809e-12)
(-6.439797834e-10 -1.908195824e-17 3.04832895e-12)
(-7.155520214e-10 -2.103352215e-17 3.387127384e-12)
(-7.596253694e-10 -2.233456475e-17 3.595757372e-12)
(-7.745075285e-10 -2.275489981e-17 3.666207962e-12)
(-7.596253633e-10 -2.233456475e-17 3.595766046e-12)
(-7.155520095e-10 -2.103352215e-17 3.387144731e-12)
(-6.439797661e-10 -1.908195824e-17 3.048354538e-12)
(-5.476600712e-10 -1.604619215e-17 2.592418901e-12)
(-4.302931347e-10 -1.25767452e-17 2.036854192e-12)
(-2.963904629e-10 -8.67361738e-18 1.40301464e-12)
(-1.510988521e-10 -4.33680869e-18 7.152636773e-13)
(1.555440902e-17 0 2.275490284e-17)
(1.510988826e-10 4.33680869e-18 -7.152191166e-13)
(2.963904917e-10 8.67361738e-18 -1.402972573e-12)
(4.302931606e-10 1.25767452e-17 -2.036816028e-12)
(5.476600932e-10 1.604619215e-17 -2.592386809e-12)
(6.439797834e-10 1.908195824e-17 -3.04832895e-12)
(7.155520214e-10 2.103352215e-17 -3.387127384e-12)
(7.596253694e-10 2.233456475e-17 -3.595757372e-12)
(1.282495498e-07 8.52753367e-16 8.556203693e-09)
(1.282347139e-07 8.522913278e-16 8.556270416e-09)
(1.281907775e-07 8.510987054e-16 8.556468024e-09)
(1.281194276e-07 8.491471415e-16 8.55678893e-09)
(1.280234071e-07 8.461113754e-16 8.557220796e-09)
(1.279064048e-07 8.426419285e-16 8.557747033e-09)
(1.277729181e-07 8.387388006e-16 8.558347412e-09)
(1.276280779e-07 8.344019919e-16 8.558998856e-09)
(1.274774485e-07 8.300651833e-16 8.55967634e-09)
(1.27326819e-07 8.257283746e-16 8.560353824e-09)
(1.271819788e-07 8.213915659e-16 8.561005271e-09)
(1.270484921e-07 8.174884381e-16 8.561605654e-09)
(1.269314898e-07 8.140189911e-16 8.562131897e-09)
(1.268354694e-07 8.10983225e-16 8.56256377e-09)
(1.267641195e-07 8.090316611e-16 8.562884683e-09)
(1.267201831e-07 8.076221983e-16 8.563082301e-09)
(1.267053472e-07 8.072434051e-16 8.563149032e-09)
(1.267201831e-07 8.076221983e-16 8.563082309e-09)
(1.267641195e-07 8.090316611e-16 8.562884701e-09)
(1.268354694e-07 8.10983225e-16 8.562563796e-09)
(1.269314898e-07 8.140189911e-16 8.562131929e-09)
(1.270484922e-07 8.174884381e-16 8.561605693e-09)
(1.271819788e-07 8.213915659e-16 8.561005313e-09)
(1.273268191e-07 8.257283746e-16 8.560353869e-09)
(1.274774485e-07 8.300651833e-16 8.559676385e-09)
(1.276280779e-07 8.344019919e-16 8.558998901e-09)
(1.277729182e-07 8.387388006e-16 8.558347454e-09)
(1.279064048e-07 8.426419285e-16 8.557747071e-09)
(1.280234071e-07 8.461113754e-16 8.557220828e-09)
(1.281194276e-07 8.491471415e-16 8.556788955e-09)
(1.281907775e-07 8.510987054e-16 8.556468042e-09)
(1.282347139e-07 8.522913278e-16 8.556270425e-09)
(2.555102036e-07 6.907398259e-16 1.70638721e-08)
(2.554955029e-07 6.903115232e-16 1.706393378e-08)
(2.554519669e-07 6.891189008e-16 1.706411645e-08)
(2.553812673e-07 6.869504965e-16 1.706441311e-08)
(2.55286122e-07 6.839147304e-16 1.706481234e-08)
(2.551701861e-07 6.804452835e-16 1.706529881e-08)
(2.550379161e-07 6.765421556e-16 1.706585381e-08)
(2.54894396e-07 6.722053469e-16 1.706645603e-08)
(2.547451395e-07 6.678685383e-16 1.706708231e-08)
(2.545958829e-07 6.635317296e-16 1.70677086e-08)
(2.544523628e-07 6.591949209e-16 1.706831082e-08)
(2.543200928e-07 6.552917931e-16 1.706886583e-08)
(2.542041569e-07 6.518223461e-16 1.706935231e-08)
(2.541090116e-07 6.4878658e-16 1.706975154e-08)
(2.54038312e-07 6.470518565e-16 1.70700482e-08)
(2.539947761e-07 6.456423937e-16 1.707023089e-08)
(2.539800754e-07 6.452297005e-16 1.707029258e-08)
(2.539947761e-07 6.456423937e-16 1.70702309e-08)
(2.540383121e-07 6.470518565e-16 1.707004822e-08)
(2.541090116e-07 6.4878658e-16 1.706975157e-08)
(2.542041569e-07 6.518223461e-16 1.706935234e-08)
(2.543200928e-07 6.552917931e-16 1.706886587e-08)
(2.544523628e-07 6.591949209e-16 1.706831086e-08)
(2.545958829e-07 6.635317296e-16 1.706770865e-08)
(2.547451395e-07 6.678685383e-16 1.706708236e-08)
(2.54894396e-07 6.722053469e-16 1.706645607e-08)
(2.550379161e-07 6.765421556e-16 1.706585386e-08)
(2.551701861e-07 6.804452835e-16 1.706529884e-08)
(2.55286122e-07 6.839147304e-16 1.706481237e-08)
(2.553812673e-07 6.869504965e-16 1.706441313e-08)
(2.554519669e-07 6.891189008e-16 1.706411647e-08)
(2.554955029e-07 6.903115232e-16 1.706393379e-08)
(3.82344319e-07 5.425789758e-16 2.546818554e-08)
(3.823298417e-07 5.421010862e-16 2.546824319e-08)
(3.822869673e-07 5.410168841e-16 2.546841394e-08)
(3.822173421e-07 5.390653202e-16 2.546869122e-08)
(3.821236428e-07 5.360295541e-16 2.546906438e-08)
(3.820094687e-07 5.325601071e-16 2.546951909e-08)
(3.818792088e-07 5.286569793e-16 2.547003785e-08)
(3.817378697e-07 5.238864897e-16 2.547060075e-08)
(3.815908814e-07 5.195496811e-16 2.547118614e-08)
(3.814438931e-07 5.152128724e-16 2.547177153e-08)
(3.81302554e-07 5.113097445e-16 2.547233442e-08)
(3.811722941e-07 5.074066167e-16 2.54728532e-08)
(3.8105812e-07 5.039371698e-16 2.547330791e-08)
(3.809644206e-07 5.009014037e-16 2.547368107e-08)
(3.808947955e-07 4.989498398e-16 2.547395837e-08)
(3.808519211e-07 4.974319567e-16 2.547412912e-08)
(3.808374438e-07 4.970688467e-16 2.547418678e-08)
(3.808519211e-07 4.974319567e-16 2.547412913e-08)
(3.808947955e-07 4.989498398e-16 2.547395838e-08)
(3.809644206e-07 5.009014037e-16 2.54736811e-08)
(3.8105812e-07 5.039371698e-16 2.547330794e-08)
(3.811722941e-07 5.074066167e-16 2.547285323e-08)
(3.81302554e-07 5.113097445e-16 2.547233447e-08)
(3.814438931e-07 5.152128724e-16 2.547177157e-08)
(3.815908814e-07 5.195496811e-16 2.547118618e-08)
(3.817378697e-07 5.238864897e-16 2.547060079e-08)
(3.818792088e-07 5.286569793e-16 2.54700379e-08)
(3.820094687e-07 5.325601071e-16 2.546951912e-08)
(3.821236428e-07 5.360295541e-16 2.546906441e-08)
(3.822173422e-07 5.390653202e-16 2.546869125e-08)
(3.822869673e-07 5.410168841e-16 2.546841396e-08)
(3.823298417e-07 5.421010862e-16 2.54682432e-08)
(5.085399468e-07 4.117039934e-16 3.372136246e-08)
(5.085257708e-07 4.11237884e-16 3.372141575e-08)
(5.084837889e-07 4.100452616e-16 3.372157357e-08)
(5.08415613e-07 4.080936977e-16 3.372182987e-08)
(5.08323864e-07 4.050579316e-16 3.372217478e-08)
(5.082120665e-07 4.015884847e-16 3.372259507e-08)
(5.08084518e-07 3.976853569e-16 3.372307457e-08)
(5.07946121e-07 3.929148673e-16 3.372359485e-08)
(5.078021923e-07 3.885780586e-16 3.372413593e-08)
(5.076582636e-07 3.842412499e-16 3.372467702e-08)
(5.075198665e-07 3.803381221e-16 3.37251973e-08)
(5.07392318e-07 3.764349943e-16 3.372567681e-08)
(5.072805206e-07 3.729655473e-16 3.37260971e-08)
(5.071887716e-07 3.699297813e-16 3.372644202e-08)
(5.071205957e-07 3.679782173e-16 3.372669832e-08)
(5.070786137e-07 3.665687545e-16 3.372685615e-08)
(5.070644378e-07 3.661938611e-16 3.372690945e-08)
(5.070786138e-07 3.665687545e-16 3.372685616e-08)
(5.071205957e-07 3.679782173e-16 3.372669834e-08)
(5.071887716e-07 3.699297813e-16 3.372644205e-08)
(5.072805206e-07 3.729655473e-16 3.372609713e-08)
(5.07392318e-07 3.764349943e-16 3.372567684e-08)
(5.075198666e-07 3.803381221e-16 3.372519734e-08)
(5.076582636e-07 3.842412499e-16 3.372467706e-08)
(5.078021923e-07 3.885780586e-16 3.372413598e-08)
(5.07946121e-07 3.929148673e-16 3.37235949e-08)
(5.08084518e-07 3.976853569e-16 3.372307461e-08)
(5.082120666e-07 4.015884847e-16 3.372259511e-08)
(5.08323864e-07 4.050579316e-16 3.372217481e-08)
(5.08415613e-07 4.080936977e-16 3.372182989e-08)
(5.084837889e-07 4.100452616e-16 3.372157359e-08)
(5.085257709e-07 4.11237884e-16 3.372141576e-08)
(6.338856142e-07 2.996593097e-16 4.178315897e-08)
(6.338718012e-07 2.992397996e-16 4.178320833e-08)
(6.338308943e-07 2.97938757e-16 4.178335454e-08)
(6.33764464e-07 2.962040335e-16 4.178359198e-08)
(6.336750643e-07 2.931682674e-16 4.178391151e-08)
(6.335661295e-07 2.896988205e-16 4.178430087e-08)
(6.334418469e-07 2.857956927e-16 4.178474509e-08)
(6.333069936e-07 2.810252031e-16 4.178522708e-08)
(6.331667503e-07 2.766883944e-16 4.178572835e-08)
(6.330265069e-07 2.723515857e-16 4.178622962e-08)
(6.328916536e-07 2.684484579e-16 4.178671162e-08)
(6.327673711e-07 2.645453301e-16 4.178715584e-08)
(6.326584362e-07 2.610758831e-16 4.17875452e-08)
(6.325690365e-07 2.580401171e-16 4.178786474e-08)
(6.325026063e-07 2.558717127e-16 4.178810219e-08)
(6.324616993e-07 2.545706701e-16 4.17882484e-08)
(6.324478864e-07 2.541492541e-16 4.178829778e-08)
(6.324616993e-07 2.545706701e-16 4.178824841e-08)
(6.325026063e-07 2.558717127e-16 4.17881022e-08)
(6.325690365e-07 2.580401171e-16 4.178786477e-08)
(6.326584362e-07 2.610758831e-16 4.178754523e-08)
(6.327673711e-07 2.645453301e-16 4.178715588e-08)
(6.328916536e-07 2.684484579e-16 4.178671166e-08)
(6.330265069e-07 2.723515857e-16 4.178622966e-08)
(6.331667503e-07 2.766883944e-16 4.17857284e-08)
(6.333069936e-07 2.810252031e-16 4.178522713e-08)
(6.334418469e-07 2.857956927e-16 4.178474513e-08)
(6.335661295e-07 2.896988205e-16 4.178430091e-08)
(6.336750643e-07 2.931682674e-16 4.178391154e-08)
(6.33764464e-07 2.962040335e-16 4.1783592e-08)
(6.338308943e-07 2.97938757e-16 4.178335456e-08)
(6.338718012e-07 2.992397996e-16 4.178320834e-08)
(7.581692344e-07 2.065796223e-16 4.961994772e-08)
(7.581558396e-07 2.062152532e-16 4.961999316e-08)
(7.581161711e-07 2.049142106e-16 4.962012773e-08)
(7.58051752e-07 2.029626467e-16 4.962034628e-08)
(7.579650589e-07 1.999268806e-16 4.962064039e-08)
(7.57859422e-07 1.964574337e-16 4.962099877e-08)
(7.57738902e-07 1.925543058e-16 4.962140765e-08)
(7.576081313e-07 1.882174971e-16 4.96218513e-08)
(7.574721338e-07 1.838806885e-16 4.962231269e-08)
(7.573361363e-07 1.795438798e-16 4.962277408e-08)
(7.572053656e-07 1.752070711e-16 4.962321773e-08)
(7.570848457e-07 1.713039433e-16 4.962362661e-08)
(7.569792088e-07 1.678344963e-16 4.9623985e-08)
(7.568925157e-07 1.647987302e-16 4.962427912e-08)
(7.568280966e-07 1.628471663e-16 4.962449767e-08)
(7.567884281e-07 1.615461237e-16 4.962463226e-08)
(7.567750333e-07 1.610695636e-16 4.96246777e-08)
(7.567884281e-07 1.615461237e-16 4.962463227e-08)
(7.568280966e-07 1.628471663e-16 4.962449769e-08)
(7.568925157e-07 1.647987302e-16 4.962427914e-08)
(7.569792088e-07 1.678344963e-16 4.962398503e-08)
(7.570848457e-07 1.713039433e-16 4.962362665e-08)
(7.572053657e-07 1.752070711e-16 4.962321777e-08)
(7.573361364e-07 1.795438798e-16 4.962277412e-08)
(7.574721338e-07 1.838806885e-16 4.962231273e-08)
(7.576081314e-07 1.882174971e-16 4.962185135e-08)
(7.577389021e-07 1.925543058e-16 4.962140769e-08)
(7.57859422e-07 1.964574337e-16 4.962099881e-08)
(7.579650589e-07 1.999268806e-16 4.962064042e-08)
(7.58051752e-07 2.029626467e-16 4.96203463e-08)
(7.581161711e-07 2.049142106e-16 4.962012775e-08)
(7.581558396e-07 2.062152532e-16 4.961999316e-08)
(8.811784845e-07 1.315987058e-16 5.720020328e-08)
(8.811655621e-07 1.310800427e-16 5.720024504e-08)
(8.811272926e-07 1.298874203e-16 5.720036873e-08)
(8.810651454e-07 1.279358564e-16 5.72005696e-08)
(8.809815096e-07 1.249000903e-16 5.720083993e-08)
(8.808795982e-07 1.214306433e-16 5.720116932e-08)
(8.807633286e-07 1.175275155e-16 5.720154513e-08)
(8.806371698e-07 1.136243877e-16 5.72019529e-08)
(8.805059685e-07 1.09287579e-16 5.720237697e-08)
(8.803747671e-07 1.049507703e-16 5.720280105e-08)
(8.802486083e-07 1.001802807e-16 5.720320882e-08)
(8.801323387e-07 9.627715292e-17 5.720358463e-08)
(8.800304273e-07 9.280770596e-17 5.720391404e-08)
(8.799467915e-07 8.977193988e-17 5.720418437e-08)
(8.798846444e-07 8.782037597e-17 5.720438525e-08)
(8.798463748e-07 8.641091315e-17 5.720450895e-08)
(8.798334524e-07 8.60887242e-17 5.720455072e-08)
(8.798463748e-07 8.641091315e-17 5.720450895e-08)
(8.798846444e-07 8.782037597e-17 5.720438526e-08)
(8.799467915e-07 8.977193988e-17 5.720418439e-08)
(8.800304274e-07 9.280770596e-17 5.720391407e-08)
(8.801323387e-07 9.627715292e-17 5.720358467e-08)
(8.802486083e-07 1.001802807e-16 5.720320886e-08)
(8.803747671e-07 1.049507703e-16 5.720280109e-08)
(8.805059685e-07 1.09287579e-16 5.720237702e-08)
(8.806371698e-07 1.136243877e-16 5.720195295e-08)
(8.807633286e-07 1.175275155e-16 5.720154517e-08)
(8.808795982e-07 1.214306433e-16 5.720116936e-08)
(8.809815096e-07 1.249000903e-16 5.720083996e-08)
(8.810651454e-07 1.279358564e-16 5.720056963e-08)
(8.811272926e-07 1.298874203e-16 5.720036875e-08)
(8.811655621e-07 1.310800427e-16 5.720024505e-08)
(1.002702156e-06 7.318899595e-17 6.449938617e-08)
(1.002689737e-06 7.274996577e-17 6.449942436e-08)
(1.002652958e-06 7.155734338e-17 6.449953747e-08)
(1.002593232e-06 6.938893904e-17 6.449972117e-08)
(1.002512854e-06 6.635317296e-17 6.449996838e-08)
(1.002414913e-06 6.2883726e-17 6.45002696e-08)
(1.002303173e-06 5.898059818e-17 6.450061327e-08)
(1.002181929e-06 5.464378949e-17 6.450098618e-08)
(1.002055838e-06 5.03069808e-17 6.450137398e-08)
(1.001929748e-06 4.597017211e-17 6.450176179e-08)
(1.001808504e-06 4.163336342e-17 6.45021347e-08)
(1.001696764e-06 3.77302356e-17 6.450247837e-08)
(1.001598823e-06 3.426078865e-17 6.450277961e-08)
(1.001518445e-06 3.122502257e-17 6.450302682e-08)
(1.001458719e-06 2.949029909e-17 6.450321052e-08)
(1.00142194e-06 2.808083627e-17 6.450332364e-08)
(1.001409521e-06 2.767901153e-17 6.450336185e-08)
(1.00142194e-06 2.808083627e-17 6.450332365e-08)
(1.001458719e-06 2.949029909e-17 6.450321054e-08)
(1.001518445e-06 3.122502257e-17 6.450302685e-08)
(1.001598823e-06 3.426078865e-17 6.450277964e-08)
(1.001696764e-06 3.77302356e-17 6.450247841e-08)
(1.001808504e-06 4.163336342e-17 6.450213474e-08)
(1.001929748e-06 4.597017211e-17 6.450176184e-08)
(1.002055838e-06 5.03069808e-17 6.450137403e-08)
(1.002181929e-06 5.464378949e-17 6.450098622e-08)
(1.002303173e-06 5.898059818e-17 6.450061332e-08)
(1.002414913e-06 6.2883726e-17 6.450026964e-08)
(1.002512854e-06 6.635317296e-17 6.449996841e-08)
(1.002593232e-06 6.938893904e-17 6.449972119e-08)
(1.002652958e-06 7.155734338e-17 6.449953749e-08)
(1.002689737e-06 7.274996577e-17 6.449942437e-08)
(1.122528132e-06 2.94340534e-17 7.150124717e-08)
(1.122516242e-06 2.905661822e-17 7.150128198e-08)
(1.12248103e-06 2.775557562e-17 7.150138507e-08)
(1.122423847e-06 2.602085214e-17 7.15015525e-08)
(1.122346891e-06 2.298508606e-17 7.150177781e-08)
(1.12225312e-06 1.95156391e-17 7.150205236e-08)
(1.122146138e-06 1.561251128e-17 7.150236559e-08)
(1.122030057e-06 1.127570259e-17 7.150270547e-08)
(1.121909335e-06 6.938893904e-18 7.150305893e-08)
(1.121788614e-06 2.602085214e-18 7.150341239e-08)
(1.121672532e-06 -1.734723476e-18 7.150375227e-08)
(1.12156555e-06 -5.637851297e-18 7.15040655e-08)
(1.121471779e-06 -9.107298249e-18 7.150434006e-08)
(1.121394824e-06 -1.214306433e-17 7.150456538e-08)
(1.121337641e-06 -1.431146868e-17 7.150473281e-08)
(1.121302428e-06 -1.561251128e-17 7.150483591e-08)
(1.121290538e-06 -1.607585368e-17 7.150487073e-08)
(1.121302428e-06 -1.561251128e-17 7.150483592e-08)
(1.121337641e-06 -1.431146868e-17 7.150473283e-08)
(1.121394824e-06 -1.214306433e-17 7.15045654e-08)
(1.121471779e-06 -9.107298249e-18 7.150434009e-08)
(1.12156555e-06 -5.637851297e-18 7.150406554e-08)
(1.121672532e-06 -1.734723476e-18 7.150375231e-08)
(1.121788614e-06 2.602085214e-18 7.150341243e-08)
(1.121909335e-06 6.938893904e-18 7.150305897e-08)
(1.122030057e-06 1.127570259e-17 7.150270551e-08)
(1.122146138e-06 1.561251128e-17 7.150236564e-08)
(1.12225312e-06 1.95156391e-17 7.15020524e-08)
(1.122346891e-06 2.298508606e-17 7.150177784e-08)
(1.122423847e-06 2.602085214e-17 7.150155252e-08)
(1.12248103e-06 2.775557562e-17 7.150138509e-08)
(1.122516242e-06 2.905661822e-17 7.150128199e-08)
(1.240443972e-06 -1.7591412e-18 7.819110091e-08)
(1.240432636e-06 -2.276824562e-18 7.819113248e-08)
(1.240399065e-06 -3.469446952e-18 7.819122597e-08)
(1.240344548e-06 -5.637851297e-18 7.819137779e-08)
(1.240271181e-06 -8.67361738e-18 7.819158212e-08)
(1.240181783e-06 -1.214306433e-17 7.81918311e-08)
(1.240079789e-06 -1.604619215e-17 7.819211515e-08)
(1.23996912e-06 -1.994931997e-17 7.819242337e-08)
(1.239854028e-06 -2.428612866e-17 7.819274391e-08)
(1.239738935e-06 -2.862293735e-17 7.819306445e-08)
(1.239628266e-06 -3.339342691e-17 7.819337267e-08)
(1.239526272e-06 -3.729655473e-17 7.819365673e-08)
(1.239436874e-06 -4.076600169e-17 7.819390571e-08)
(1.239363507e-06 -4.380176777e-17 7.819411004e-08)
(1.23930899e-06 -4.553649124e-17 7.819426188e-08)
(1.239275419e-06 -4.694595407e-17 7.819435538e-08)
(1.239264084e-06 -4.726905084e-17 7.819438695e-08)
(1.239275419e-06 -4.694595407e-17 7.819435539e-08)
(1.23930899e-06 -4.553649124e-17 7.81942619e-08)
(1.239363507e-06 -4.380176777e-17 7.819411007e-08)
(1.239436874e-06 -4.076600169e-17 7.819390574e-08)
(1.239526272e-06 -3.729655473e-17 7.819365676e-08)
(1.239628266e-06 -3.339342691e-17 7.819337271e-08)
(1.239738935e-06 -2.862293735e-17 7.819306449e-08)
(1.239854028e-06 -2.428612866e-17 7.819274395e-08)
(1.23996912e-06 -1.994931997e-17 7.819242342e-08)
(1.240079789e-06 -1.604619215e-17 7.81921152e-08)
(1.240181783e-06 -1.214306433e-17 7.819183114e-08)
(1.240271181e-06 -8.67361738e-18 7.819158215e-08)
(1.240344548e-06 -5.637851297e-18 7.819137782e-08)
(1.240399065e-06 -3.469446952e-18 7.819122598e-08)
(1.240432636e-06 -2.276824562e-18 7.819113248e-08)
(1.35623792e-06 -2.250202022e-17 8.455799238e-08)
(1.356227151e-06 -2.287666584e-17 8.455802087e-08)
(1.356195259e-06 -2.428612866e-17 8.455810526e-08)
(1.356143468e-06 -2.645453301e-17 8.45582423e-08)
(1.35607377e-06 -2.949029909e-17 8.455842673e-08)
(1.355988842e-06 -3.295974604e-17 8.455865146e-08)
(1.355891948e-06 -3.686287386e-17 8.455890785e-08)
(1.355786813e-06 -4.076600169e-17 8.455918605e-08)
(1.355677476e-06 -4.510281038e-17 8.455947536e-08)
(1.355568138e-06 -4.943961907e-17 8.455976469e-08)
(1.355463003e-06 -5.421010862e-17 8.456004289e-08)
(1.355366109e-06 -5.811323645e-17 8.456029928e-08)
(1.355281181e-06 -6.15826834e-17 8.456052402e-08)
(1.355211483e-06 -6.461844948e-17 8.456070845e-08)
(1.355159692e-06 -6.635317296e-17 8.45608455e-08)
(1.3551278e-06 -6.754579535e-17 8.456092989e-08)
(1.355117031e-06 -6.801193226e-17 8.456095839e-08)
(1.3551278e-06 -6.754579535e-17 8.45609299e-08)
(1.355159692e-06 -6.635317296e-17 8.456084551e-08)
(1.355211483e-06 -6.461844948e-17 8.456070847e-08)
(1.355281181e-06 -6.15826834e-17 8.456052405e-08)
(1.355366109e-06 -5.811323645e-17 8.456029932e-08)
(1.355463003e-06 -5.421010862e-17 8.456004293e-08)
(1.355568138e-06 -4.943961907e-17 8.455976473e-08)
(1.355677476e-06 -4.510281038e-17 8.455947541e-08)
(1.355786813e-06 -4.076600169e-17 8.455918609e-08)
(1.355891948e-06 -3.686287386e-17 8.455890789e-08)
(1.355988842e-06 -3.295974604e-17 8.455865149e-08)
(1.35607377e-06 -2.949029909e-17 8.455842676e-08)
(1.356143468e-06 -2.645453301e-17 8.455824233e-08)
(1.356195259e-06 -2.428612866e-17 8.455810528e-08)
(1.356227151e-06 -2.287666584e-17 8.455802088e-08)
(1.469697242e-06 -3.481184783e-17 9.059323894e-08)
(1.469687058e-06 -3.512815039e-17 9.059326451e-08)
(1.469656897e-06 -3.664603343e-17 9.059334024e-08)
(1.469607917e-06 -3.816391647e-17 9.059346323e-08)
(1.469542003e-06 -4.119968255e-17 9.059362874e-08)
(1.469461684e-06 -4.466912951e-17 9.059383042e-08)
(1.46937005e-06 -4.857225733e-17 9.059406051e-08)
(1.469270622e-06 -5.290906602e-17 9.059431018e-08)
(1.46916722e-06 -5.724587471e-17 9.059456983e-08)
(1.469063818e-06 -6.15826834e-17 9.059482948e-08)
(1.46896439e-06 -6.591949209e-17 9.059507915e-08)
(1.468872755e-06 -6.982261991e-17 9.059530925e-08)
(1.468792437e-06 -7.329206686e-17 9.059551094e-08)
(1.468726522e-06 -7.632783294e-17 9.059567646e-08)
(1.468677543e-06 -7.871307772e-17 9.059579945e-08)
(1.468647382e-06 -7.979727989e-17 9.059587519e-08)
(1.468637198e-06 -8.032176215e-17 9.059590077e-08)
(1.468647382e-06 -7.979727989e-17 9.05958752e-08)
(1.468677543e-06 -7.871307772e-17 9.059579947e-08)
(1.468726522e-06 -7.632783294e-17 9.059567648e-08)
(1.468792437e-06 -7.329206686e-17 9.059551097e-08)
(1.468872755e-06 -6.982261991e-17 9.059530929e-08)
(1.46896439e-06 -6.591949209e-17 9.059507919e-08)
(1.469063818e-06 -6.15826834e-17 9.059482952e-08)
(1.46916722e-06 -5.724587471e-17 9.059456988e-08)
(1.469270622e-06 -5.290906602e-17 9.059431023e-08)
(1.46937005e-06 -4.857225733e-17 9.059406056e-08)
(1.469461684e-06 -4.466912951e-17 9.059383046e-08)
(1.469542003e-06 -4.119968255e-17 9.059362877e-08)
(1.469607917e-06 -3.816391647e-17 9.059346325e-08)
(1.469656897e-06 -3.664603343e-17 9.059334026e-08)
(1.469687058e-06 -3.512815039e-17 9.059326452e-08)
(1.580610599e-06 -4.05369532e-17 9.629290836e-08)
(1.580600995e-06 -4.08744219e-17 9.629293117e-08)
(1.580572553e-06 -4.228388473e-17 9.629299872e-08)
(1.580526365e-06 -4.423544864e-17 9.629310843e-08)
(1.580464207e-06 -4.727121472e-17 9.629325607e-08)
(1.580388467e-06 -5.074066167e-17 9.629343597e-08)
(1.580302056e-06 -5.464378949e-17 9.629364122e-08)
(1.580208295e-06 -5.898059818e-17 9.629386393e-08)
(1.580110786e-06 -6.331740687e-17 9.629409554e-08)
(1.580013278e-06 -6.765421556e-17 9.629432715e-08)
(1.579919517e-06 -7.199102425e-17 9.629454986e-08)
(1.579833106e-06 -7.589415207e-17 9.629475511e-08)
(1.579757365e-06 -7.936359903e-17 9.629493502e-08)
(1.579695207e-06 -8.239936511e-17 9.629508266e-08)
(1.57964902e-06 -8.435092902e-17 9.629519238e-08)
(1.579620578e-06 -8.554355141e-17 9.629525994e-08)
(1.579610974e-06 -8.604686965e-17 9.629528275e-08)
(1.579620578e-06 -8.554355141e-17 9.629525995e-08)
(1.57964902e-06 -8.435092902e-17 9.629519239e-08)
(1.579695207e-06 -8.239936511e-17 9.629508269e-08)
(1.579757365e-06 -7.936359903e-17 9.629493505e-08)
(1.579833106e-06 -7.589415207e-17 9.629475515e-08)
(1.579919517e-06 -7.199102425e-17 9.62945499e-08)
(1.580013278e-06 -6.765421556e-17 9.629432719e-08)
(1.580110786e-06 -6.331740687e-17 9.629409558e-08)
(1.580208295e-06 -5.898059818e-17 9.629386397e-08)
(1.580302056e-06 -5.464378949e-17 9.629364126e-08)
(1.580388467e-06 -5.074066167e-17 9.629343601e-08)
(1.580464207e-06 -4.727121472e-17 9.62932561e-08)
(1.580526365e-06 -4.423544864e-17 9.629310845e-08)
(1.580572553e-06 -4.228388473e-17 9.629299874e-08)
(1.580600995e-06 -4.08744219e-17 9.629293118e-08)
(1.6887649e-06 -4.131217574e-17 1.016560585e-07)
(1.688755884e-06 -4.174178364e-17 1.016560787e-07)
(1.688729183e-06 -4.293440603e-17 1.016561386e-07)
(1.688685822e-06 -4.510281038e-17 1.016562357e-07)
(1.688627469e-06 -4.813857646e-17 1.016563665e-07)
(1.688556365e-06 -5.160802341e-17 1.016565259e-07)
(1.688475242e-06 -5.551115123e-17 1.016567077e-07)
(1.68838722e-06 -5.984795992e-17 1.016569049e-07)
(1.68829568e-06 -6.418476861e-17 1.016571101e-07)
(1.68820414e-06 -6.85215773e-17 1.016573153e-07)
(1.688116118e-06 -7.285838599e-17 1.016575125e-07)
(1.688034996e-06 -7.676151381e-17 1.016576943e-07)
(1.687963892e-06 -8.023096076e-17 1.016578537e-07)
(1.687905538e-06 -8.326672685e-17 1.016579845e-07)
(1.687862178e-06 -8.500145032e-17 1.016580817e-07)
(1.687835477e-06 -8.641091315e-17 1.016581415e-07)
(1.687826461e-06 -8.682209419e-17 1.016581617e-07)
(1.687835477e-06 -8.641091315e-17 1.016581415e-07)
(1.687862178e-06 -8.500145032e-17 1.016580817e-07)
(1.687905538e-06 -8.326672685e-17 1.016579845e-07)
(1.687963892e-06 -8.023096076e-17 1.016578537e-07)
(1.688034996e-06 -7.676151381e-17 1.016576944e-07)
(1.688116118e-06 -7.285838599e-17 1.016575126e-07)
(1.68820414e-06 -6.85215773e-17 1.016573153e-07)
(1.68829568e-06 -6.418476861e-17 1.016571101e-07)
(1.68838722e-06 -5.984795992e-17 1.01656905e-07)
(1.688475242e-06 -5.551115123e-17 1.016567077e-07)
(1.688556365e-06 -5.160802341e-17 1.016565259e-07)
(1.688627469e-06 -4.813857646e-17 1.016563665e-07)
(1.688685822e-06 -4.510281038e-17 1.016562358e-07)
(1.688729183e-06 -4.293440603e-17 1.016561386e-07)
(1.688755884e-06 -4.174178364e-17 1.016560787e-07)
(1.793948352e-06 -3.853982641e-17 1.066824428e-07)
(1.793939917e-06 -3.892285799e-17 1.066824606e-07)
(1.793914938e-06 -4.033232082e-17 1.066825132e-07)
(1.793874373e-06 -4.250072516e-17 1.066825986e-07)
(1.793819783e-06 -4.553649124e-17 1.066827135e-07)
(1.793753263e-06 -4.90059382e-17 1.066828536e-07)
(1.793677371e-06 -5.290906602e-17 1.066830134e-07)
(1.793595025e-06 -5.724587471e-17 1.066831868e-07)
(1.793509387e-06 -6.15826834e-17 1.066833671e-07)
(1.79342375e-06 -6.591949209e-17 1.066835474e-07)
(1.793341403e-06 -7.025630078e-17 1.066837208e-07)
(1.793265512e-06 -7.41594286e-17 1.066838806e-07)
(1.793198992e-06 -7.762887555e-17 1.066840207e-07)
(1.793144401e-06 -8.066464163e-17 1.066841356e-07)
(1.793103837e-06 -8.239936511e-17 1.06684221e-07)
(1.793078857e-06 -8.35919875e-17 1.066842736e-07)
(1.793070423e-06 -8.404966673e-17 1.066842914e-07)
(1.793078857e-06 -8.35919875e-17 1.066842736e-07)
(1.793103837e-06 -8.239936511e-17 1.066842211e-07)
(1.793144401e-06 -8.066464163e-17 1.066841356e-07)
(1.793198992e-06 -7.762887555e-17 1.066840207e-07)
(1.793265512e-06 -7.41594286e-17 1.066838806e-07)
(1.793341403e-06 -7.025630078e-17 1.066837209e-07)
(1.79342375e-06 -6.591949209e-17 1.066835475e-07)
(1.793509387e-06 -6.15826834e-17 1.066833671e-07)
(1.793595025e-06 -5.724587471e-17 1.066831868e-07)
(1.793677371e-06 -5.290906602e-17 1.066830134e-07)
(1.793753263e-06 -4.90059382e-17 1.066828536e-07)
(1.793819783e-06 -4.553649124e-17 1.066827136e-07)
(1.793874373e-06 -4.250072516e-17 1.066825986e-07)
(1.793914938e-06 -4.033232082e-17 1.066825132e-07)
(1.793939917e-06 -3.892285799e-17 1.066824606e-07)
(1.895947994e-06 -3.338729521e-17 1.113734558e-07)
(1.895940143e-06 -3.382710778e-17 1.113734713e-07)
(1.89591689e-06 -3.512815039e-17 1.113735171e-07)
(1.895879129e-06 -3.729655473e-17 1.113735915e-07)
(1.895828311e-06 -4.033232082e-17 1.113736916e-07)
(1.89576639e-06 -4.380176777e-17 1.113738136e-07)
(1.895695744e-06 -4.770489559e-17 1.113739528e-07)
(1.895619089e-06 -5.204170428e-17 1.113741038e-07)
(1.895539371e-06 -5.637851297e-17 1.113742609e-07)
(1.895459652e-06 -6.071532166e-17 1.11374418e-07)
(1.895382997e-06 -6.505213035e-17 1.11374569e-07)
(1.895312352e-06 -6.895525817e-17 1.113747082e-07)
(1.89525043e-06 -7.242470512e-17 1.113748302e-07)
(1.895199612e-06 -7.54604712e-17 1.113749304e-07)
(1.895161851e-06 -7.719519468e-17 1.113750048e-07)
(1.895138599e-06 -7.849623729e-17 1.113750506e-07)
(1.895130747e-06 -7.889713727e-17 1.113750661e-07)
(1.895138599e-06 -7.849623729e-17 1.113750506e-07)
(1.895161851e-06 -7.719519468e-17 1.113750048e-07)
(1.895199612e-06 -7.54604712e-17 1.113749304e-07)
(1.89525043e-06 -7.242470512e-17 1.113748303e-07)
(1.895312352e-06 -6.895525817e-17 1.113747083e-07)
(1.895382997e-06 -6.505213035e-17 1.113745691e-07)
(1.895459652e-06 -6.071532166e-17 1.11374418e-07)
(1.895539371e-06 -5.637851297e-17 1.11374261e-07)
(1.895619089e-06 -5.204170428e-17 1.113741039e-07)
(1.895695744e-06 -4.770489559e-17 1.113739528e-07)
(1.89576639e-06 -4.380176777e-17 1.113738136e-07)
(1.895828311e-06 -4.033232082e-17 1.113736916e-07)
(1.895879129e-06 -3.729655473e-17 1.113735915e-07)
(1.89591689e-06 -3.512815039e-17 1.113735171e-07)
(1.895940143e-06 -3.382710778e-17 1.113734713e-07)
(1.994551544e-06 -2.679768969e-17 1.157296843e-07)
(1.994544272e-06 -2.721347453e-17 1.157296976e-07)
(1.994522735e-06 -2.862293735e-17 1.157297371e-07)
(1.99448776e-06 -3.035766083e-17 1.157298012e-07)
(1.994440692e-06 -3.339342691e-17 1.157298876e-07)
(1.994383339e-06 -3.686287386e-17 1.157299928e-07)
(1.994317905e-06 -4.076600169e-17 1.157301128e-07)
(1.994246906e-06 -4.510281038e-17 1.15730243e-07)
(1.994173069e-06 -4.943961907e-17 1.157303785e-07)
(1.994099233e-06 -5.377642776e-17 1.157305139e-07)
(1.994028234e-06 -5.811323645e-17 1.157306441e-07)
(1.9939628e-06 -6.201636427e-17 1.157307642e-07)
(1.993905447e-06 -6.548581122e-17 1.157308694e-07)
(1.993858379e-06 -6.85215773e-17 1.157309557e-07)
(1.993823404e-06 -7.068998165e-17 1.157310199e-07)
(1.993801867e-06 -7.188260404e-17 1.157310594e-07)
(1.993794595e-06 -7.230753335e-17 1.157310727e-07)
(1.993801867e-06 -7.188260404e-17 1.157310594e-07)
(1.993823404e-06 -7.068998165e-17 1.157310199e-07)
(1.993858379e-06 -6.85215773e-17 1.157309557e-07)
(1.993905447e-06 -6.548581122e-17 1.157308694e-07)
(1.9939628e-06 -6.201636427e-17 1.157307642e-07)
(1.994028234e-06 -5.811323645e-17 1.157306442e-07)
(1.994099233e-06 -5.377642776e-17 1.15730514e-07)
(1.994173069e-06 -4.943961907e-17 1.157303785e-07)
(1.994246906e-06 -4.510281038e-17 1.157302431e-07)
(1.994317905e-06 -4.076600169e-17 1.157301128e-07)
(1.994383339e-06 -3.686287386e-17 1.157299928e-07)
(1.994440692e-06 -3.339342691e-17 1.157298876e-07)
(1.99448776e-06 -3.035766083e-17 1.157298013e-07)
(1.994522735e-06 -2.862293735e-17 1.157297371e-07)
(1.994544272e-06 -2.721347453e-17 1.157296976e-07)
(2.08954632e-06 -1.951012065e-17 1.197527224e-07)
(2.089539625e-06 -1.994931997e-17 1.197527337e-07)
(2.089519798e-06 -2.125036258e-17 1.197527674e-07)