/*--------------------------------*- C++ -*----------------------------------*\
| =========                 |                                                 |
| \\      /  F ield         | OpenFOAM: The Open Source CFD Toolbox           |
|  \\    /   O peration     | Version:  2312                                  |
|   \\  /    A nd           | Website:  www.openfoam.com                      |
|    \\/     M anipulation  |                                                 |
\*---------------------------------------------------------------------------*/
FoamFile
{
    version     2.0;
    format      ascii;
    arch        "LSB;label=32;scalar=64";
    class       surfaceVectorField;
    location    "0.01/beam";
    object      Q;
}
// * * * * * * * * * * * * * * * * * * * * * * * * * * * * * * * * * * * * * //

dimensions      [1 1 -2 0 0 0 0];

oriented        oriented;

internalField   nonuniform List<vector> 
59
(
(0.0004341286179 -5.078768004e-17 5.460287319e-10)
(0.000433044112 -3.185877813e-17 5.170947839e-10)
(0.0004312365933 -1.689313346e-17 4.77752615e-10)
(0.0004287060358 -5.482134917e-18 4.322974297e-10)
(0.0004254524333 2.842717195e-18 3.845854405e-10)
(0.0004214757616 8.568402754e-18 3.373006395e-10)
(0.0004167759911 1.217025215e-17 2.923989345e-10)
(0.000411353087 1.409129575e-17 2.510465393e-10)
(0.0004052070088 1.472934898e-17 2.139208169e-10)
(0.0003983377109 1.443020327e-17 1.813738445e-10)
(0.0003907451421 1.348546706e-17 1.533427733e-10)
(0.0003824292459 1.213379657e-17 1.29611195e-10)
(0.0003733899604 1.056444122e-17 1.096857971e-10)
(0.0003636272183 8.922270261e-18 9.314813017e-11)
(0.000353140947 7.31357891e-18 7.944691558e-11)
(0.0003419310682 5.812083087e-18 6.817657165e-11)
(0.0003299974987 4.464838824e-18 5.883373721e-11)
(0.0003173401494 3.297709426e-18 5.104515112e-11)
(0.0003039589262 2.320247267e-18 4.441370914e-11)
(0.0002898537294 1.529988566e-18 3.86844416e-11)
(0.000275024454 9.158761331e-19 3.363557533e-11)
(0.0002594709894 4.612706434e-19 2.901762239e-11)
(0.0002431951089 1.463491438e-19 2.472298537e-11)
(0.0002261910438 -5.053160917e-20 2.061123596e-11)
(0.0002084663479 -1.513788438e-19 1.667640806e-11)
(0.0001900128816 -1.781730034e-19 1.289029396e-11)
(0.0001708388423 -1.522756419e-19 9.26041023e-12)
(0.0001509354249 -9.437701173e-20 5.803757555e-12)
(0.000130311471 -2.469178554e-20 2.564477368e-12)
(0.0001089575095 3.695416343e-20 -4.223563308e-13)
(8.688302634e-05 1.005529034e-19 -3.081712057e-12)
(6.407788446e-05 1.760122719e-19 -5.345355318e-12)
(4.05522144e-05 2.430229555e-19 -7.165588195e-12)
(1.629521261e-05 2.807092813e-19 -8.51212641e-12)
(-8.682345377e-06 2.672911648e-19 -9.310295894e-12)
(-3.439203135e-05 1.800463304e-19 -9.561113396e-12)
(-6.082219619e-05 -4.604809839e-21 -9.282360203e-12)
(-8.798523097e-05 -3.109512692e-19 -8.463540648e-12)
(-0.0001158688156 -7.629464587e-19 -7.210911502e-12)
(-0.0001444860086 -1.383596932e-18 -5.683390345e-12)
(-0.0001738238439 -2.192399954e-18 -4.08102936e-12)
(-0.0002038960479 -3.204168984e-18 -2.552537258e-12)
(-0.0002346890082 -4.424584266e-18 -1.430803502e-12)
(-0.0002662171194 -5.848312375e-18 -1.173023543e-12)
(-0.0002984661223 -7.452303969e-18 -2.169699098e-12)
(-0.0003314510801 -9.193219298e-18 -4.967895882e-12)
(-0.0003651570866 -1.099879765e-17 -1.003664911e-11)
(-0.0003995998742 -1.276470343e-17 -1.806220967e-11)
(-0.0004347638888 -1.434493859e-17 -2.954303212e-11)
(-0.0004706655324 -1.554885134e-17 -4.506434088e-11)
(-0.000507288603 -1.613306795e-17 -6.508767563e-11)
(-0.0005446501727 -1.579980357e-17 -8.982549216e-11)
(-0.0005827333908 -1.419464749e-17 -1.192280539e-10)
(-0.0006215559998 -1.090807789e-17 -1.529365712e-10)
(-0.0006611005004 -5.485709665e-18 -1.900042251e-10)
(-0.0007013853059 2.564318662e-18 -2.288285981e-10)
(-0.0007423922673 1.37397712e-17 -2.670525999e-10)
(-0.0007841404698 2.85277917e-17 -3.01027428e-10)
(-0.0008266111142 4.734170887e-17 -3.266101754e-10)
)
;

boundaryField
{
    left
    {
        type            calculated;
        value           uniform (-0.0004344901258 -6.811715975e-12 -5.641906863e-10);
    }
    right
    {
        type            calculated;
        value           uniform (-0.0008698239648 -6.810950285e-12 -3.436518917e-10);
    }
    beam
    {
        type            empty;
        value           nonuniform List<vector> 0();
    }
}


// ************************************************************************* //
