/*--------------------------------*- C++ -*----------------------------------*\
| =========                 |                                                 |
| \\      /  F ield         | OpenFOAM: The Open Source CFD Toolbox           |
|  \\    /   O peration     | Version:  2312                                  |
|   \\  /    A nd           | Website:  www.openfoam.com                      |
|    \\/     M anipulation  |                                                 |
\*---------------------------------------------------------------------------*/
FoamFile
{
    version     2.0;
    format      ascii;
    arch        "LSB;label=32;scalar=64";
    class       volVectorField;
    location    "0.01/beam";
    object      Theta;
}
// * * * * * * * * * * * * * * * * * * * * * * * * * * * * * * * * * * * * * //

dimensions      [0 0 0 0 0 0 0];

internalField   nonuniform List<vector> 
60
(
(2.93537852e-17 -4.300882686e-05 -3.888869278e-15)
(2.935976501e-17 -4.071682376e-05 -3.691410015e-15)
(2.936328368e-17 -3.979450825e-05 -3.364959301e-15)
(2.936698959e-17 -3.805081051e-05 -2.96399564e-15)
(2.936990179e-17 -3.679706671e-05 -2.530866389e-15)
(2.937220835e-17 -3.524876522e-05 -2.096990596e-15)
(2.9374098e-17 -3.387558503e-05 -1.684581731e-15)
(2.937554094e-17 -3.239667296e-05 -1.308203387e-15)
(2.937672242e-17 -3.098028558e-05 -9.762879503e-16)
(2.937764893e-17 -2.952591297e-05 -6.925291212e-16)
(2.937840712e-17 -2.809385903e-05 -4.57079777e-16)
(2.937901728e-17 -2.664816327e-05 -2.675970282e-16)
(2.937951562e-17 -2.521044787e-05 -1.201145279e-16)
(2.937991933e-17 -2.376785824e-05 -9.642690764e-18)
(2.938024623e-17 -2.232815147e-05 6.914891129e-17)
(2.938051219e-17 -2.088673087e-05 1.216261266e-16)
(2.938072638e-17 -1.944638098e-05 1.529405314e-16)
(2.938090359e-17 -1.800545648e-05 1.676850692e-16)
(2.938104897e-17 -1.656495445e-05 1.699597322e-16)
(2.938117306e-17 -1.5124283e-05 1.633099435e-16)
(2.938128015e-17 -1.36837949e-05 1.50256261e-16)
(2.938137238e-17 -1.224327409e-05 1.337579016e-16)
(2.938144917e-17 -1.08029256e-05 1.148063723e-16)
(2.938151912e-17 -9.362501739e-06 9.554604013e-17)
(2.93815726e-17 -7.922127114e-06 7.519765425e-17)
(2.938161709e-17 -6.481769823e-06 5.693692754e-17)
(2.938164328e-17 -5.041438056e-06 3.641341286e-17)
(2.938164956e-17 -3.601118149e-06 2.129935176e-17)
(2.93816443e-17 -2.160814469e-06 -1.569031305e-18)
(2.9381596e-17 -7.205183382e-07 -1.062953155e-17)
(2.938159476e-17 7.197743123e-07 1.412831813e-17)
(2.938164109e-17 2.160067516e-06 4.816086507e-18)
(2.93816445e-17 3.600365455e-06 -1.854000455e-17)
(2.938163661e-17 5.040677015e-06 -3.445252786e-17)
(2.938160876e-17 6.480998175e-06 -5.606270529e-17)
(2.938156393e-17 7.921343081e-06 -7.562878265e-17)
(2.938151029e-17 9.36170431e-06 -9.767652013e-17)
(2.9381441e-17 1.080211472e-05 -1.189839186e-16)
(2.938136464e-17 1.22425323e-05 -1.404113841e-16)
(2.938127378e-17 1.36830436e-05 -1.596662095e-16)
(2.938117274e-17 1.512352674e-05 -1.755656298e-16)
(2.938105259e-17 1.656419979e-05 -1.854143183e-16)
(2.938091146e-17 1.800471252e-05 -1.864670506e-16)
(2.938073888e-17 1.944565964e-05 -1.749331089e-16)
(2.938052923e-17 2.088604705e-05 -1.46556298e-16)
(2.938026713e-17 2.232752297e-05 -9.64711729e-17)
(2.93799423e-17 2.376730578e-05 -1.927508297e-17)
(2.937953948e-17 2.520999469e-05 9.075937957e-17)
(2.937904037e-17 2.664783467e-05 2.392699682e-16)
(2.937842624e-17 2.809368145e-05 4.314950341e-16)
(2.937765983e-17 2.952591306e-05 6.716379698e-16)
(2.937672152e-17 3.098048891e-05 9.621728297e-16)
(2.937552018e-17 3.239709813e-05 1.302931778e-15)
(2.937405474e-17 3.387625919e-05 1.690021787e-15)
(2.937212431e-17 3.524969498e-05 2.114583982e-15)
(2.936978224e-17 3.679826184e-05 2.561381436e-15)
(2.936679504e-17 3.805224121e-05 3.00726839e-15)
(2.936304747e-17 3.979618131e-05 3.419683626e-15)
(2.93594061e-17 4.071865106e-05 3.754976612e-15)
(2.935341502e-17 4.301082587e-05 3.957380904e-15)
)
;

boundaryField
{
    left
    {
        type            momentBeamRotationNR;
        value           uniform (2.93537852e-17 -4.300882686e-05 -3.888869278e-15);
        momentSeries    
{
        file            "$FOAM_CASE/constant/beam/timeVsMoment";
        outOfBounds     clamp;
}
        moment          uniform (0 0 0);
    }
    right
    {
        type            momentBeamRotationNR;
        value           uniform (2.935341502e-17 4.301082587e-05 3.957380904e-15);
        momentSeries    
{
        file            "$FOAM_CASE/constant/beam/timeVsMoment";
        outOfBounds     clamp;
}
        moment          uniform (0 0 0);
    }
    beam
    {
        type            empty;
    }
}


// ************************************************************************* //
