/*--------------------------------*- C++ -*----------------------------------*\
| =========                 |                                                 |
| \\      /  F ield         | OpenFOAM: The Open Source CFD Toolbox           |
|  \\    /   O peration     | Version:  2312                                  |
|   \\  /    A nd           | Website:  www.openfoam.com                      |
|    \\/     M anipulation  |                                                 |
\*---------------------------------------------------------------------------*/
FoamFile
{
    version     2.0;
    format      ascii;
    arch        "LSB;label=32;scalar=64";
    class       volVectorField;
    location    "0.01/beam";
    object      W;
}
// * * * * * * * * * * * * * * * * * * * * * * * * * * * * * * * * * * * * * //

dimensions      [0 1 0 0 0 0 0];

internalField   nonuniform List<vector> 
60
(
(6.376472413e-08 9.139051828e-16 4.286497921e-09)
(1.911901728e-07 7.460915894e-16 1.28328548e-08)
(3.183001061e-07 5.898779371e-16 2.130130987e-08)
(4.448816567e-07 4.497698854e-16 2.964106245e-08)
(5.707227279e-07 3.281279691e-16 3.780720946e-08)
(6.956107726e-07 2.256805946e-16 4.576424728e-08)
(8.193334951e-07 1.419685913e-16 5.348037814e-08)
(9.416784418e-07 7.571883869e-17 6.092437586e-08)
(1.062433235e-06 2.514916879e-17 6.807837216e-08)
(1.181385436e-06 -1.179096906e-17 7.492774574e-08)
(1.29832262e-06 -3.723722297e-17 8.145774212e-08)
(1.413032331e-06 -5.32767295e-17 8.766120866e-08)
(1.525302108e-06 -6.185688048e-17 9.352793105e-08)
(1.634919464e-06 -6.472694238e-17 9.906026006e-08)
(1.741671896e-06 -6.340732755e-17 1.042539602e-07)
(1.845346878e-06 -5.91821656e-17 1.091127741e-07)
(1.945731863e-06 -5.310226688e-17 1.136357478e-07)
(2.042614276e-06 -4.600295616e-17 1.178250092e-07)
(2.13578152e-06 -3.852713025e-17 1.216816186e-07)
(2.225020968e-06 -3.114842135e-17 1.252111782e-07)
(2.310119964e-06 -2.420552937e-17 1.284139966e-07)
(2.390865821e-06 -1.791849242e-17 1.312889812e-07)
(2.467041519e-06 -1.241417752e-17 1.338417057e-07)
(2.538443462e-06 -7.759276215e-18 1.360729518e-07)
(2.604853457e-06 -3.975385333e-18 1.379848894e-07)
(2.66605983e-06 -1.055988536e-18 1.395787854e-07)
(2.721848515e-06 1.020869224e-18 1.408549103e-07)
(2.772007857e-06 2.281863239e-18 1.418147698e-07)
(2.816323611e-06 2.746930324e-18 1.424583078e-07)
(2.854584132e-06 2.429662978e-18 1.427862858e-07)
(2.886574992e-06 2.507190611e-18 1.427991684e-07)
(2.912084549e-06 2.973874772e-18 1.424967875e-07)
(2.930898184e-06 2.64157519e-18 1.418792466e-07)
(2.942804253e-06 1.485253518e-18 1.409459316e-07)
(2.94758794e-06 -5.28944301e-19 1.396965362e-07)
(2.945037592e-06 -3.438402828e-18 1.38130115e-07)
(2.934938159e-06 -7.278938559e-18 1.362459884e-07)
(2.917078012e-06 -1.207342272e-17 1.340442705e-07)
(2.891241883e-06 -1.781761884e-17 1.315203785e-07)
(2.857218121e-06 -2.446046643e-17 1.286732012e-07)
(2.814791242e-06 -3.188295443e-17 1.255001649e-07)
(2.763749567e-06 -3.987484892e-17 1.220032394e-07)
(2.70387739e-06 -4.810867725e-17 1.181762187e-07)
(2.634962998e-06 -5.611057708e-17 1.140141594e-07)
(2.556790454e-06 -6.322922524e-17 1.095187111e-07)
(2.469148008e-06 -6.861124973e-17 1.046837202e-07)
(2.371819485e-06 -7.117575981e-17 9.951259014e-08)
(2.264593089e-06 -6.959614862e-17 9.399730447e-08)
(2.147252403e-06 -6.229274865e-17 8.814432686e-08)
(2.019585578e-06 -4.744743009e-17 8.195128938e-08)
(1.88137595e-06 -2.302977366e-17 7.542168169e-08)
(1.732411607e-06 1.313428922e-17 6.85670574e-08)
(1.572475637e-06 6.327512894e-17 6.139565328e-08)
(1.401356051e-06 1.29527062e-16 5.392221293e-08)
(1.218835695e-06 2.137493379e-16 4.616719594e-08)
(1.024702473e-06 3.172598317e-16 3.815819184e-08)
(8.187390261e-07 4.405354783e-16 2.99264128e-08)
(6.007330698e-07 5.828109797e-16 2.151351735e-08)
(3.704671624e-07 7.416431657e-16 1.296533007e-08)
(1.277286048e-07 9.123791265e-16 4.33120785e-09)
)
;

boundaryField
{
    left
    {
        type            fixedValue;
        value           uniform (0 0 0);
    }
    right
    {
        type            fixedValue;
        value           uniform (0 0 0);
    }
    beam
    {
        type            empty;
    }
}


// ************************************************************************* //
