/*--------------------------------*- C++ -*----------------------------------*\
| =========                 |                                                 |
| \\      /  F ield         | OpenFOAM: The Open Source CFD Toolbox           |
|  \\    /   O peration     | Version:  2312                                  |
|   \\  /    A nd           | Website:  www.openfoam.com                      |
|    \\/     M anipulation  |                                                 |
\*---------------------------------------------------------------------------*/
FoamFile
{
    version     2.0;
    format      ascii;
    arch        "LSB;label=32;scalar=64";
    class       volScalarField;
    location    "0.25";
    object      p;
}
// * * * * * * * * * * * * * * * * * * * * * * * * * * * * * * * * * * * * * //

dimensions      [1 -1 -2 0 0 0 0];

internalField   nonuniform List<scalar> 
299556
(
19.37475651
19.37476961
19.37478282
19.3747962
19.37480985
19.37482383
19.37483822
19.3748531
19.37486855
19.37488464
19.37490147
19.37491911
19.37493766
19.3749572
19.37497781
19.3749996
19.37502265
19.37504706
19.37507293
19.37510034
19.37512939
19.37516019
19.37519281
19.37522736
19.37526391
19.37530254
19.37534334
19.37538635
19.37543164
19.37547924
19.37552917
19.37558144
19.37563605
19.37569293
19.37575204
19.37581327
19.37587649
19.37594154
19.37600823
19.37607629
19.37614547
19.37621541
19.37628577
19.37635612
19.37642602
19.37649498
19.37656248
19.37662796
19.37669086
19.37675058
19.37680655
19.37685817
19.37690488
19.37694612
19.3769814
19.37701025
19.37703227
19.37704713
19.37705456
19.37705437
19.37704645
19.37703081
19.3770075
19.37697668
19.37693858
19.37689347
19.37684173
19.37678376
19.37672001
19.37665096
19.3765771
19.37649895
19.37641701
19.37633177
19.37624372
19.37615329
19.37606091
19.37596695
19.37587176
19.37577563
19.3756788
19.37558151
19.37548391
19.37538614
19.37528828
19.37519042
19.37509256
19.37499472
19.37489688
19.37479899
19.37476946
19.37480859
19.37484805
19.37488805
19.37492882
19.37497059
19.37501359
19.37505806
19.37510422
19.37515232
19.3752026
19.37525533
19.37531075
19.37536913
19.37543073
19.37549584
19.37556473
19.37563767
19.37571496
19.37579688
19.37588372
19.37597575
19.37607326
19.3761765
19.37628574
19.37640122
19.37652315
19.37665172
19.37678709
19.37692938
19.37707866
19.37723494
19.37739819
19.37756828
19.37774501
19.37792811
19.37811718
19.37831174
19.37851119
19.37871479
19.37892172
19.37913098
19.37934148
19.379552
19.37976117
19.37996755
19.38016956
19.38036557
19.38055386
19.38073267
19.38090024
19.38105482
19.38119468
19.38131821
19.38142388
19.38151031
19.38157628
19.3816208
19.38164309
19.38164255
19.38161889
19.38157208
19.38150232
19.38141006
19.38129598
19.38116097
19.38100608
19.38083255
19.38064173
19.38043505
19.380214
19.37998012
19.37973492
19.37947987
19.37921641
19.37894587
19.3786695
19.37838845
19.37810371
19.37781618
19.37752662
19.37723566
19.37694381
19.37665146
19.37635889
19.37606629
19.37577375
19.37548128
19.37518885
19.37489633
19.37478229
19.37484722
19.37491268
19.37497906
19.37504672
19.37511603
19.37518739
19.37526117
19.37533777
19.37541758
19.37550103
19.37558852
19.37568049
19.37577736
19.3758796
19.37598764
19.37610196
19.37622301
19.37635128
19.37648723
19.37663135
19.37678409
19.37694592
19.37711728
19.3772986
19.37749027
19.37769267
19.37790609
19.37813081
19.37836703
19.37861486
19.37887433
19.37914538
19.37942781
19.3797213
19.38002536
19.38033938
19.38066253
19.38099383
19.38133206
19.38167584
19.38202353
19.38237332
19.38272315
19.3830708
19.38341382
19.38374963
19.38407548
19.38438853
19.38468586
19.38496452
19.38522159
19.38545423
19.38565971
19.3858355
19.3859793
19.38608909
19.3861632
19.38620033
19.38619951
19.38616022
19.38608242
19.38596647
19.3858131
19.38562344
19.38539896
19.38514146
19.38485298
19.38453575
19.38419218
19.38382477
19.38343604
19.38302852
19.38260468
19.38216689
19.38171738
19.38125823
19.38079132
19.38031834
19.37984075
19.37935983
19.37887662
19.37839196
19.3779065
19.37742071
19.37693489
19.3764492
19.37596369
19.37547827
19.3749928
19.37479492
19.37488525
19.37497632
19.37506866
19.37516278
19.37525922
19.37535849
19.37546113
19.3755677
19.37567875
19.37579485
19.37591657
19.37604453
19.37617932
19.37632156
19.37647189
19.37663095
19.37679939
19.37697787
19.37716705
19.3773676
19.37758015
19.37780536
19.37804385
19.3782962
19.37856298
19.37884468
19.37914177
19.37945459
19.37978344
19.38012848
19.38048977
19.38086719
19.3812605
19.38166924
19.38209275
19.38253017
19.38298037
19.38344195
19.38391326
19.38439235
19.38487696
19.38536454
19.38585226
19.38633698
19.38681533
19.38728368
19.3877382
19.38817492
19.38858977
19.38897862
19.3893374
19.38966211
19.38994897
19.39019441
19.39039523
19.39054859
19.39065216
19.39070412
19.39070311
19.39064839
19.39053994
19.39037824
19.39016431
19.38989975
19.38958663
19.38922744
19.38882504
19.38838259
19.38790343
19.38739106
19.38684902
19.38628085
19.38568998
19.38507973
19.38445322
19.38381334
19.38316273
19.38250372
19.38183838
19.38116846
19.38049541
19.37982041
19.37914435
19.37846789
19.37779144
19.37711523
19.3764393
19.37576359
19.37508789
19.37480727
19.37492244
19.37503856
19.37515629
19.37527631
19.37539927
19.37552585
19.37565673
19.37579262
19.37593422
19.37608226
19.37623748
19.37640065
19.37657253
19.37675393
19.37694564
19.37714849
19.37736331
19.37759094
19.37783223
19.37808802
19.37835914
19.37864642
19.37895064
19.37927258
19.37961294
19.37997237
19.38035144
19.38075063
19.3811703
19.38161068
19.38207184
19.38255364
19.38305577
19.38357767
19.3841185
19.38467715
19.3852522
19.38584188
19.38644408
19.3870563
19.38767567
19.38829895
19.38892249
19.38954232
19.3901541
19.39075319
19.39133469
19.39189352
19.39242444
19.39292218
19.3933815
19.39379729
19.39416467
19.39447907
19.39473637
19.39493294
19.39506576
19.39513251
19.39513143
19.39506159
19.39492295
19.39471613
19.39444246
19.39410398
19.39370336
19.39324382
19.39272903
19.39216304
19.39155016
19.39089487
19.39020172
19.38947524
19.38871986
19.38793981
19.3871391
19.38632141
19.38549013
19.38464825
19.38379839
19.38294279
19.38208331
19.38122143
19.3803583
19.37949474
19.37863128
19.3777682
19.37690556
19.37604327
19.3751811
19.37481927
19.37495857
19.37509902
19.37524143
19.3753866
19.37553534
19.37568845
19.37584677
19.37601115
19.37618243
19.37636152
19.37654929
19.37674668
19.37695462
19.37717407
19.37740601
19.37765143
19.37791134
19.37818677
19.37847873
19.37878825
19.37911634
19.37946401
19.3798322
19.38022186
19.38063385
19.38106895
19.38152788
19.3820112
19.38251938
19.38305268
19.38361121
19.38419482
19.38480313
19.38543547
19.38609085
19.38676793
19.387465
19.38817992
19.38891013
19.38965264
19.39040397
19.39116017
19.39191686
19.39266917
19.39341187
19.39413931
19.39484554
19.39552437
19.39616943
19.39677431
19.39733261
19.3978381
19.39828483
19.39866723
19.39898027
19.39921953
19.3993813
19.39946276
19.39946178
19.39937719
19.39920898
19.39895788
19.39862555
19.39821447
19.39772791
19.3971698
19.39654463
19.39585734
19.3951132
19.39431769
19.39347633
19.39259467
19.39167808
19.39073172
19.38976046
19.3887688
19.38776081
19.38674014
19.38570997
19.38467301
19.3836315
19.38258723
19.38154158
19.38049554
19.37944973
19.37840448
19.37735987
19.37631577
19.3752719
19.37483085
19.37499342
19.37515734
19.37532355
19.37549299
19.37566658
19.37584529
19.37603008
19.37622193
19.37642187
19.3766309
19.37685008
19.37708049
19.37732323
19.3775794
19.37785017
19.37813669
19.37844014
19.37876171
19.37910261
19.37946402
19.37984715
19.38025316
19.38068318
19.38113829
19.38161953
19.38212781
19.38266398
19.38322872
19.38382255
19.38444584
19.38509868
19.38578093
19.38649217
19.38723163
19.38799815
19.38879019
19.38960575
19.39044237
19.39129706
19.39216631
19.39304608
19.39393175
19.39481818
19.39569969
19.39657013
19.39742289
19.39825098
19.39904713
19.39980385
19.40051359
19.40116883
19.40176224
19.40228679
19.40273594
19.40310374
19.40338497
19.40357528
19.40367133
19.40367061
19.40357175
19.40337473
19.40308043
19.4026908
19.40220879
19.40163825
19.40098384
19.40025086
19.39944513
19.39857288
19.39764054
19.39665465
19.39562171
19.39454806
19.39343977
19.39230253
19.39114164
19.38996187
19.3887675
19.38756223
19.38634923
19.38513112
19.38390998
19.3826874
19.38146452
19.38024207
19.37902041
19.37779962
19.37657952
19.37535979
19.37484192
19.37502678
19.37521316
19.37540215
19.3755948
19.37579219
19.3759954
19.37620552
19.37642369
19.37665105
19.37688875
19.37713801
19.37740004
19.37767609
19.37796745
19.3782754
19.37860129
19.37894645
19.37931224
19.37970003
19.3801112
19.38054709
19.38100904
19.38149835
19.38201626
19.38256395
19.38314249
19.38375282
19.38439575
19.3850719
19.38578166
19.3865252
19.38730236
19.38811267
19.38895526
19.38982886
19.39073171
19.39166157
19.39261563
19.39359052
19.39458224
19.39558619
19.39659712
19.39760917
19.39861586
19.39961015
19.4005845
19.4015309
19.40244103
19.40330631
19.40411808
19.4048677
19.40554677
19.4061472
19.40666147
19.40708275
19.40740504
19.40762333
19.40773378
19.40773349
19.40762092
19.40739602
19.40705982
19.40661458
19.40606371
19.40541164
19.40466374
19.4038261
19.40290545
19.40190893
19.40084394
19.399718
19.39853857
19.3973129
19.39604796
19.39475028
19.39342589
19.39208027
19.39071828
19.38934415
19.38796148
19.38657323
19.38518178
19.38378892
19.38239592
19.38100359
19.37961232
19.37822218
19.37683295
19.37544423
19.37485243
19.37505843
19.37526613
19.37547673
19.37569143
19.3759114
19.37613786
19.37637203
19.37661518
19.37686856
19.37713349
19.3774113
19.37770335
19.37801105
19.37833581
19.37867909
19.37904237
19.37942715
19.37983496
19.38026732
19.38072577
19.38121183
19.38172698
19.38227269
19.38285036
19.38346129
19.3841067
19.38478767
19.38550509
19.38625968
19.38705191
19.38788196
19.38874968
19.38965457
19.39059569
19.39157164
19.39258047
19.3936197
19.39468623
19.39577628
19.39688543
19.39800853
19.39913974
19.40027249
19.40139955
19.40251303
19.40360447
19.4046649
19.40568496
19.40665502
19.40756534
19.40840621
19.40916813
19.40984203
19.41041941
19.41089257
19.41125474
19.41150026
19.41162482
19.41162516
19.4114995
19.41124783
19.41087131
19.4103725
19.40975525
19.4090246
19.40818658
19.40724811
19.40621676
19.4051006
19.40390797
19.40264733
19.40132709
19.39995541
19.3985401
19.3970885
19.39560738
19.39410286
19.39258038
19.39104468
19.38949975
19.38794891
19.38639478
19.38483933
19.38328398
19.38172958
19.38017656
19.37862495
19.37707449
19.3755247
19.37486232
19.37508818
19.37531592
19.37554685
19.37578226
19.37602347
19.37627179
19.37652858
19.3767952
19.37707307
19.3773636
19.37766826
19.37798856
19.37832602
19.3786822
19.37905872
19.37945719
19.37987927
19.38032663
19.38080096
19.38130394
19.38183724
19.38240252
19.38300138
19.38363537
19.38430594
19.38501443
19.38576204
19.38654978
19.38737845
19.38824858
19.38916039
19.39011375
19.39110813
19.39214252
19.39321541
19.39432468
19.39546764
19.39664089
19.39784031
19.39906105
19.40029747
19.40154315
19.40279086
19.40403265
19.40525983
19.40646305
19.40763242
19.4087576
19.40982793
19.41083262
19.41176093
19.41260233
19.41334675
19.41398476
19.41450781
19.41490839
19.41518022
19.4153185
19.41531961
19.4151816
19.41490444
19.41448944
19.41393947
19.41325881
19.41245305
19.41152895
19.41049416
19.40935711
19.40812676
19.40681237
19.40542332
19.40396892
19.40245821
19.40089983
19.39930189
19.39767184
19.39601645
19.39434169
19.39265278
19.39095409
19.38924926
19.38754113
19.38583187
19.38412298
19.38241538
19.3807095
19.37900535
19.3773026
19.3756007
19.37487151
19.37511586
19.37536223
19.37561206
19.37586675
19.3761277
19.37639636
19.37667419
19.37696266
19.3772633
19.37757765
19.3779073
19.37825388
19.37861904
19.37900448
19.37941194
19.37984318
19.38029999
19.38078419
19.38129761
19.38184208
19.38241941
19.38303142
19.38367984
19.38436635
19.38509256
19.38585993
19.38666976
19.38752317
19.38842105
19.389364
19.39035228
19.39138578
19.39246393
19.39358569
19.39474943
19.39595291
19.39719321
19.39846667
19.39976888
19.40109456
19.40243763
19.40379111
19.40514719
19.4064972
19.40783171
19.40914055
19.41041293
19.41163758
19.41280287
19.41389701
19.41490826
19.4158251
19.41663652
19.41733219
19.41790274
19.41833994
19.4186369
19.41878837
19.4187904
19.41864083
19.41833966
19.41788833
19.41728999
19.41654936
19.41567259
19.41466707
19.41354123
19.41230429
19.41096608
19.40953674
19.40802654
19.40644564
19.40480393
19.40311084
19.40137518
19.39960511
19.39780795
19.39599021
19.39415753
19.39231466
19.3904655
19.38861314
19.38675987
19.3849073
19.38305641
19.3812076
19.37936085
19.37751577
19.37567171
19.37487995
19.37514128
19.37540477
19.37567197
19.37594436
19.37622346
19.37651081
19.37680796
19.3771165
19.37743807
19.37777431
19.37812693
19.37849767
19.3788883
19.37930063
19.37973654
19.38019791
19.38068667
19.38120476
19.38175414
19.38233679
19.38295466
19.38360968
19.38430374
19.38503865
19.38581613
19.38663776
19.38750497
19.38841896
19.38938072
19.3903909
19.39144981
19.39255736
19.39371299
19.39491557
19.39616342
19.39745415
19.39878467
19.4001511
19.40154869
19.40297185
19.40441404
19.40586781
19.40732476
19.40877561
19.41021019
19.41161758
19.41298615
19.41430376
19.41555787
19.41673574
19.41782468
19.41881225
19.41968653
19.42043634
19.42105153
19.4215232
19.42184389
19.42200788
19.42201093
19.42185069
19.42152718
19.42104197
19.42039847
19.41960183
19.41865872
19.41757717
19.4163663
19.41503614
19.41359731
19.41206079
19.41043769
19.40873899
19.40697537
19.40515698
19.40329336
19.40139323
19.39946451
19.39751417
19.39554825
19.39357183
19.39158909
19.38960328
19.38761686
19.3856315
19.38364821
19.3816674
19.37968899
19.37771252
19.37573725
19.37488759
19.37516429
19.37544329
19.3757262
19.37601462
19.37631015
19.37661441
19.37692906
19.37725578
19.3775963
19.37795237
19.37832579
19.3787184
19.3791321
19.3795688
19.38003049
19.38051916
19.38103687
19.38158567
19.38216767
19.38278494
19.38343957
19.38413362
19.38486909
19.38564793
19.38647196
19.38734288
19.38826221
19.38923128
19.39025111
19.39132244
19.39244564
19.39362062
19.39484682
19.39612308
19.39744763
19.39881799
19.4002309
19.40168226
19.40316707
19.40467942
19.40621237
19.40775803
19.40930748
19.41085085
19.41237734
19.4138753
19.41533236
19.41673553
19.41807145
19.4193265
19.42048712
19.42153999
19.42247234
19.42327222
19.42392873
19.42443235
19.42477507
19.42495077
19.4249549
19.42478496
19.42444097
19.42392462
19.4232396
19.42239144
19.4213873
19.4202358
19.41894674
19.41753088
19.41599958
19.41436463
19.41263789
19.41083114
19.40895575
19.40702258
19.40504179
19.4030227
19.4009737
19.39890221
19.39681463
19.39471635
19.39261177
19.39050434
19.38839662
19.38629034
19.38418654
19.38208561
19.37998742
19.37789144
19.37579685
19.37489438
19.37518475
19.37547752
19.37577442
19.37607709
19.37638722
19.37670653
19.37703674
19.37737963
19.377737
19.3781107
19.37850262
19.3789147
19.37934891
19.3798073
19.38029192
19.38080489
19.38134837
19.38192452
19.38253555
19.38318365
19.38387103
19.38459985
19.38537223
19.38619022
19.38705575
19.38797064
19.38893648
19.38995469
19.39102638
19.39215235
19.39333299
19.39456826
19.39585757
19.39719977
19.39859301
19.4000347
19.40152146
19.40304901
19.40461211
19.40620456
19.40781908
19.40944738
19.41108009
19.4127068
19.41431612
19.41589577
19.41743268
19.41891315
19.42032301
19.42164788
19.42287337
19.42398538
19.42497037
19.42581566
19.4265097
19.42704236
19.42740515
19.42759157
19.4275968
19.42741819
19.42705577
19.42651135
19.42578886
19.42489418
19.42383494
19.42262029
19.42126067
19.41976748
19.4181528
19.41642912
19.41460903
19.41270498
19.41072902
19.40869265
19.40660657
19.40448063
19.40232368
19.40014352
19.39794689
19.39573945
19.39352579
19.39130951
19.38909328
19.38687889
19.38466738
19.38245913
19.38025394
19.37805122
19.37585007
19.37490029
19.37520253
19.37550728
19.37581632
19.37613137
19.3764542
19.37678658
19.37713032
19.37748726
19.37785928
19.37824831
19.37865632
19.37908532
19.37953738
19.38001461
19.38051919
19.3810533
19.38161919
19.38221913
19.38285543
19.38353037
19.38424625
19.38500534
19.38580987
19.38666196
19.38756366
19.38851686
19.38952326
19.39058433
19.39170126
19.39287491
19.3941057
19.39539363
19.39673811
19.39813795
19.39959126
19.40109539
19.40264682
19.40424112
19.40587285
19.40753556
19.40922169
19.41092257
19.41262844
19.41432843
19.41601065
19.41766224
19.41926951
19.42081813
19.42229323
19.42367973
19.42496253
19.42612681
19.42715837
19.42804386
19.42877114
19.42932956
19.42971018
19.42990618
19.42991248
19.42972631
19.42934769
19.42877856
19.42802305
19.42708737
19.42597956
19.42470927
19.42328747
19.42172617
19.42003807
19.4182363
19.41633409
19.41434449
19.41228018
19.41015316
19.40797468
19.40575503
19.40350344
19.40122809
19.39893597
19.39663299
19.39432392
19.39201249
19.38970144
19.3873926
19.38508704
19.38278508
19.38048651
19.37819064
19.3758965
19.37490527
19.37521752
19.37553237
19.37585164
19.37617714
19.37651067
19.37685408
19.37720922
19.37757801
19.37796238
19.37836434
19.37878591
19.37922918
19.3796963
19.38018944
19.38071084
19.38126278
19.38184759
19.38246762
19.38312524
19.38382283
19.38456278
19.38534745
19.38617912
19.38706003
19.38799229
19.38897788
19.39001856
19.39111588
19.39227109
19.39348508
19.39475834
19.39609086
19.39748207
19.39893077
19.40043503
19.40199213
19.40359845
19.40524943
19.40693947
19.40866191
19.41040893
19.41217159
19.41393976
19.41570219
19.41744655
19.4191595
19.42082683
19.42243364
19.42396449
19.42540368
19.4267355
19.42794454
19.42901597
19.42993591
19.43069169
19.43127222
19.43166818
19.43187244
19.43187974
19.43168716
19.43129475
19.43070454
19.42992086
19.42895018
19.4278009
19.4264831
19.42500824
19.42338882
19.4216381
19.41976975
19.41779755
19.4157351
19.41359555
19.41139141
19.40913434
19.40683502
19.40450304
19.40214684
19.39977369
19.39738966
19.39499969
19.3926076
19.39021621
19.38782738
19.38544217
19.3830609
19.38068329
19.37830861
19.37593579
19.37490929
19.37522962
19.37555262
19.37588017
19.37621411
19.37655628
19.37690859
19.37727294
19.3776513
19.37804566
19.37845805
19.37889058
19.37934539
19.37982466
19.38033065
19.38086566
19.38143202
19.38203211
19.38266837
19.38334323
19.38405914
19.38481856
19.3856239
19.38647753
19.38738175
19.38833875
19.38935055
19.39041899
19.39154567
19.39273188
19.39397856
19.39528623
19.39665491
19.39808402
19.39957236
19.40111797
19.40271807
19.40436898
19.40606602
19.40780347
19.40957449
19.41137107
19.41318401
19.41500292
19.41681624
19.41861126
19.42037426
19.42209061
19.42374493
19.42532132
19.42680358
19.42817548
19.42942113
19.4305252
19.43147334
19.43225248
19.43285114
19.43325969
19.43347076
19.43347892
19.43328115
19.43287752
19.43227012
19.43146343
19.43046418
19.42928106
19.42792449
19.42640631
19.42473947
19.42293768
19.42101504
19.4189858
19.41686398
19.41466317
19.41239624
19.41007522
19.40771111
19.40531377
19.40289189
19.40045291
19.39800308
19.39554744
19.39308992
19.39063337
19.38817969
19.38572992
19.38328437
19.38084271
19.37840417
19.37596761
19.37491232
19.37523877
19.37556793
19.37590173
19.37624203
19.37659074
19.37694977
19.37732109
19.37770668
19.37810857
19.37852886
19.37896968
19.3794332
19.37992166
19.38043737
19.38098265
19.3815599
19.38217156
19.38282009
19.38350798
19.38423775
19.38501189
19.38583287
19.38670311
19.38762498
19.38860069
19.38963233
19.39072178
19.39187069
19.39308038
19.39435183
19.39568557
19.39708165
19.3985395
19.4000579
19.40163487
19.4032676
19.40495235
19.40668436
19.40845782
19.41026575
19.41209999
19.41395118
19.41580869
19.41766073
19.41949432
19.42129544
19.42304913
19.42473967
19.42635078
19.42786589
19.42926838
19.43054197
19.43167096
19.43264065
19.43343765
19.43405017
19.43446837
19.43468467
19.43469351
19.43449181
19.43407964
19.43345914
19.43263494
19.43161392
19.430405
19.42901888
19.4274677
19.42576475
19.42392405
19.42196009
19.41988742
19.41772044
19.41547302
19.41315835
19.41078873
19.40837539
19.40592841
19.40345664
19.4009677
19.39846794
19.3959625
19.39345536
19.39094941
19.38844657
19.38594789
19.38345363
19.38096346
19.37847655
19.37599172
19.37491436
19.3752449
19.37557819
19.37591617
19.37626075
19.37661383
19.37697738
19.37735336
19.37774379
19.37815074
19.37857632
19.37902268
19.37949205
19.37998667
19.38050889
19.38106106
19.38164562
19.38226503
19.38292179
19.38361842
19.38435748
19.38514149
19.38597296
19.38685435
19.38778805
19.38877632
19.38982127
19.39092483
19.39208865
19.39331411
19.39460218
19.39595344
19.39736792
19.39884507
19.40038367
19.40198173
19.40363639
19.40534389
19.40709943
19.40889711
19.41072988
19.41258949
19.41446642
19.41634993
19.41822805
19.42008764
19.42191445
19.42369333
19.42540829
19.42704283
19.4285801
19.43000325
19.4312957
19.43244153
19.43342578
19.43423484
19.43485674
19.43528146
19.43550131
19.43551063
19.43530629
19.43488836
19.43425904
19.43342303
19.43238732
19.431161
19.42975496
19.42818153
19.42645422
19.4245873
19.42259548
19.42049357
19.41829615
19.41601735
19.41367054
19.4112682
19.40882173
19.40634135
19.40383604
19.4013135
19.39878018
19.39624126
19.39370077
19.39116164
19.38862578
19.38609424
19.38356728
19.38104454
19.37852515
19.3760079
19.37491538
19.37524797
19.37558333
19.37592342
19.37627014
19.37662542
19.37699122
19.37736954
19.37776241
19.37817189
19.37860012
19.37904927
19.37952157
19.38001928
19.38054477
19.3811004
19.38168862
19.38231192
19.3829728
19.38367383
19.38441754
19.3852065
19.38604324
19.38693023
19.38786986
19.38886444
19.38991607
19.39102671
19.39219802
19.39343139
19.39472782
19.39608787
19.3975116
19.39899845
19.40054719
19.40215584
19.40382153
19.40554047
19.40730783
19.40911769
19.41096295
19.4128353
19.41472519
19.41662178
19.41851303
19.42038569
19.42222545
19.424017
19.42574426
19.4273906
19.42893904
19.43037258
19.43167454
19.43282885
19.43382045
19.43463559
19.43526222
19.43569023
19.43591187
19.43592144
19.43571578
19.43529495
19.43466119
19.43381923
19.43277613
19.43154105
19.43012497
19.42854034
19.42680078
19.42492066
19.42291482
19.42079818
19.41858545
19.41629086
19.41392788
19.41150909
19.40904596
19.40654879
19.40402662
19.4014872
19.398937
19.39638127
19.39382403
19.39126822
19.38871578
19.38616773
19.38362435
19.38108525
19.37854955
19.37601603
19.37491538
19.37524797
19.37558333
19.37592342
19.37627014
19.37662542
19.37699122
19.37736954
19.37776241
19.37817189
19.37860012
19.37904927
19.37952157
19.38001928
19.38054477
19.3811004
19.38168862
19.38231192
19.3829728
19.38367383
19.38441754
19.3852065
19.38604324
19.38693023
19.38786986
19.38886443
19.38991607
19.39102671
19.39219802
19.39343139
19.39472782
19.39608787
19.3975116
19.39899844
19.40054719
19.40215584
19.40382153
19.40554047
19.40730783
19.40911769
19.41096295
19.4128353
19.41472519
19.41662178
19.41851303
19.42038569
19.42222545
19.424017
19.42574427
19.4273906
19.42893904
19.43037259
19.43167455
19.43282886
19.43382045
19.4346356
19.43526223
19.43569024
19.43591187
19.43592145
19.43571578
19.43529496
19.4346612
19.43381923
19.43277613
19.43154106
19.43012498
19.42854035
19.42680078
19.42492066
19.42291482
19.42079818
19.41858546
19.41629086
19.41392789
19.41150909
19.40904596
19.40654879
19.40402662
19.4014872
19.398937
19.39638127
19.39382403
19.39126822
19.38871578
19.38616773
19.38362435
19.38108525
19.37854955
19.37601603
19.37491436
19.3752449
19.37557819
19.37591617
19.37626075
19.37661383
19.37697738
19.37735336
19.37774379
19.37815074
19.37857632
19.37902268
19.37949205
19.37998667
19.38050889
19.38106106
19.38164562
19.38226503
19.38292179
19.38361842
19.38435748
19.38514149
19.38597296
19.38685435
19.38778805
19.38877632
19.38982127
19.39092483
19.39208865
19.3933141
19.39460218
19.39595344
19.39736792
19.39884507
19.40038367
19.40198172
19.40363639
19.40534389
19.40709943
19.40889711
19.41072988
19.41258949
19.41446642
19.41634993
19.41822806
19.42008764
19.42191446
19.42369333
19.4254083
19.42704284
19.42858011
19.43000326
19.43129571
19.43244154
19.4334258
19.43423486
19.43485676
19.43528148
19.43550132
19.43551065
19.43530631
19.43488838
19.43425906
19.43342305
19.43238734
19.43116102
19.42975498
19.42818155
19.42645424
19.42458732
19.4225955
19.42049358
19.41829617
19.41601736
19.41367055
19.41126821
19.40882174
19.40634136
19.40383605
19.40131351
19.39878019
19.39624127
19.39370078
19.39116165
19.38862579
19.38609424
19.38356728
19.38104454
19.37852515
19.3760079
19.37491232
19.37523877
19.37556793
19.37590173
19.37624203
19.37659074
19.37694977
19.37732109
19.37770668
19.37810857
19.37852886
19.37896968
19.3794332
19.37992166
19.38043737
19.38098265
19.3815599
19.38217156
19.38282009
19.38350798
19.38423775
19.38501188
19.38583286
19.38670311
19.38762498
19.38860069
19.38963233
19.39072178
19.39187068
19.39308038
19.39435182
19.39568557
19.39708165
19.39853949
19.40005789
19.40163487
19.4032676
19.40495234
19.40668436
19.40845782
19.41026575
19.41209999
19.41395118
19.4158087
19.41766073
19.41949433
19.42129545
19.42304914
19.42473969
19.4263508
19.4278659
19.4292684
19.43054199
19.43167098
19.43264068
19.43343768
19.4340502
19.4344684
19.4346847
19.43469355
19.43449185
19.43407967
19.43345918
19.43263497
19.43161395
19.43040503
19.42901891
19.42746773
19.42576478
19.42392408
19.42196011
19.41988745
19.41772046
19.41547304
19.41315837
19.41078875
19.40837541
19.40592842
19.40345666
19.40096772
19.39846796
19.39596251
19.39345537
19.39094942
19.38844658
19.38594789
19.38345364
19.38096347
19.37847655
19.37599172
19.37490929
19.37522962
19.37555262
19.37588017
19.37621411
19.37655628
19.37690859
19.37727294
19.3776513
19.37804565
19.37845805
19.37889058
19.37934539
19.37982466
19.38033065
19.38086566
19.38143201
19.38203211
19.38266837
19.38334323
19.38405914
19.38481856
19.3856239
19.38647753
19.38738175
19.38833875
19.38935055
19.39041899
19.39154566
19.39273188
19.39397856
19.39528623
19.3966549
19.39808402
19.39957236
19.40111797
19.40271807
19.40436897
19.40606602
19.40780347
19.40957449
19.41137107
19.41318401
19.41500293
19.41681624
19.41861127
19.42037427
19.42209062
19.42374495
19.42532134
19.4268036
19.42817551
19.42942115
19.43052523
19.43147337
19.43225252
19.43285118
19.43325973
19.4334708
19.43347896
19.4332812
19.43287756
19.43227016
19.43146348
19.43046423
19.4292811
19.42792453
19.42640635
19.42473951
19.42293772
19.42101508
19.41898584
19.41686402
19.4146632
19.41239627
19.41007525
19.40771114
19.4053138
19.40289191
19.40045293
19.39800309
19.39554746
19.39308993
19.39063338
19.3881797
19.38572993
19.38328437
19.38084272
19.37840417
19.37596761
19.37490527
19.37521752
19.37553237
19.37585164
19.37617714
19.37651067
19.37685408
19.37720922
19.37757801
19.37796238
19.37836434
19.37878591
19.37922918
19.3796963
19.38018944
19.38071084
19.38126278
19.38184759
19.38246762
19.38312524
19.38382283
19.38456278
19.38534744
19.38617912
19.38706003
19.38799229
19.38897787
19.39001856
19.39111588
19.39227109
19.39348508
19.39475834
19.39609085
19.39748207
19.39893077
19.40043503
19.40199212
19.40359844
19.40524942
19.40693947
19.40866191
19.41040894
19.41217159
19.41393977
19.4157022
19.41744656
19.41915951
19.42082685
19.42243366
19.42396452
19.42540371
19.42673554
19.42794458
19.42901601
19.42993595
19.43069174
19.43127227
19.43166823
19.43187249
19.43187979
19.43168721
19.43129481
19.4307046
19.42992091
19.42895023
19.42780096
19.42648316
19.42500829
19.42338887
19.42163815
19.4197698
19.4177976
19.41573514
19.41359559
19.41139145
19.40913438
19.40683505
19.40450307
19.40214687
19.39977371
19.39738968
19.39499971
19.39260762
19.39021622
19.3878274
19.38544218
19.38306091
19.3806833
19.37830861
19.37593579
19.37490029
19.37520253
19.37550728
19.37581632
19.37613137
19.3764542
19.37678658
19.37713032
19.37748726
19.37785928
19.37824831
19.37865631
19.37908532
19.37953738
19.38001461
19.38051918
19.3810533
19.38161919
19.38221913
19.38285543
19.38353037
19.38424625
19.38500534
19.38580987
19.38666196
19.38756366
19.38851686
19.38952326
19.39058433
19.39170126
19.3928749
19.3941057
19.39539362
19.3967381
19.39813794
19.39959126
19.40109539
19.40264682
19.40424111
19.40587285
19.40753556
19.40922169
19.41092257
19.41262845
19.41432844
19.41601066
19.41766225
19.41926954
19.42081815
19.42229326
19.42367976
19.42496256
19.42612686
19.42715842
19.42804391
19.42877119
19.42932961
19.42971024
19.42990624
19.42991255
19.42972637
19.42934776
19.42877862
19.42802312
19.42708744
19.42597962
19.42470933
19.42328753
19.42172623
19.42003813
19.41823635
19.41633414
19.41434454
19.41228022
19.41015321
19.40797472
19.40575506
19.40350348
19.40122812
19.398936
19.39663302
19.39432394
19.39201251
19.38970145
19.38739262
19.38508705
19.38278509
19.38048651
19.37819065
19.3758965
19.37489438
19.37518475
19.37547752
19.37577442
19.37607709
19.37638722
19.37670653
19.37703674
19.37737963
19.377737
19.3781107
19.37850262
19.3789147
19.37934891
19.3798073
19.38029192
19.38080489
19.38134837
19.38192452
19.38253555
19.38318365
19.38387103
19.38459985
19.38537223
19.38619022
19.38705575
19.38797063
19.38893648
19.38995469
19.39102638
19.39215234
19.39333299
19.39456825
19.39585757
19.39719976
19.398593
19.4000347
19.40152146
19.40304901
19.40461211
19.40620456
19.40781909
19.40944739
19.4110801
19.41270681
19.41431613
19.41589579
19.41743271
19.41891318
19.42032304
19.42164791
19.42287341
19.42398542
19.42497042
19.42581571
19.42650976
19.42704242
19.42740522
19.42759164
19.42759688
19.42741827
19.42705585
19.42651143
19.42578894
19.42489426
19.42383501
19.42262037
19.42126074
19.41976755
19.41815287
19.41642918
19.41460909
19.41270503
19.41072907
19.40869269
19.40660661
19.40448067
19.40232371
19.40014355
19.39794692
19.39573947
19.39352581
19.39130953
19.3890933
19.38687891
19.3846674
19.38245913
19.38025395
19.37805123
19.37585007
19.37488759
19.37516429
19.37544328
19.3757262
19.37601462
19.37631015
19.37661441
19.37692906
19.37725578
19.3775963
19.37795237
19.37832579
19.3787184
19.3791321
19.3795688
19.38003049