/*--------------------------------*- C++ -*----------------------------------*\
| =========                 |                                                 |
| \\      /  F ield         | OpenFOAM: The Open Source CFD Toolbox           |
|  \\    /   O peration     | Version:  2312                                  |
|   \\  /    A nd           | Website:  www.openfoam.com                      |
|    \\/     M anipulation  |                                                 |
\*---------------------------------------------------------------------------*/
FoamFile
{
    version     2.0;
    format      ascii;
    arch        "LSB;label=32;scalar=64";
    class       surfaceVectorField;
    location    "0.05/beam";
    object      Gamma;
}
// * * * * * * * * * * * * * * * * * * * * * * * * * * * * * * * * * * * * * //

dimensions      [0 0 0 0 0 0 0];

oriented        oriented;

internalField   nonuniform List<vector> 
59
(
(1.462490051e-05 4.4631352e-20 1.703630752e-09)
(1.462497172e-05 4.518655667e-20 1.688993246e-09)
(1.46250904e-05 4.587085718e-20 1.658877647e-09)
(1.462525656e-05 4.635787694e-20 1.604861626e-09)
(1.462547019e-05 4.625328525e-20 1.515479669e-09)
(1.46257313e-05 4.512773887e-20 1.376572336e-09)
(1.462603988e-05 4.256301502e-20 1.171757286e-09)
(1.462639595e-05 3.814450857e-20 8.830386976e-10)
(1.462679951e-05 3.147417457e-20 4.915899364e-10)
(1.462725055e-05 2.214357827e-20 -2.129675394e-11)
(1.462774909e-05 9.714313765e-21 -6.730723281e-10)
(1.462829512e-05 -6.295683624e-21 -1.478586581e-09)
(1.462888865e-05 -2.642145738e-20 -2.448563331e-09)
(1.462952968e-05 -5.125069291e-20 -3.587872762e-09)
(1.46302182e-05 -8.139667661e-20 -4.893670031e-09)
(1.463095421e-05 -1.174514538e-19 -6.353399828e-09)
(1.463173769e-05 -1.599118694e-19 -7.942763536e-09)
(1.463256862e-05 -2.090819162e-19 -9.623703071e-09)
(1.463344698e-05 -2.649549095e-19 -1.134252048e-08)
(1.463437273e-05 -3.270732123e-19 -1.302823937e-08)
(1.463534586e-05 -3.943868546e-19 -1.459136691e-08)
(1.463636634e-05 -4.650928999e-19 -1.592319875e-08)
(1.463743405e-05 -5.364731686e-19 -1.689575243e-08)
(1.463854938e-05 -6.048023316e-19 -1.736311876e-08)
(1.463971191e-05 -6.65139934e-19 -1.716260898e-08)
(1.464092229e-05 -7.113552888e-19 -1.611854468e-08)
(1.464218016e-05 -7.35985404e-19 -1.404725555e-08)
(1.464348633e-05 -7.303329427e-19 -1.076111306e-08)
(1.464484053e-05 -6.84517641e-19 -6.079878473e-09)
(1.464624367e-05 -5.880237473e-19 1.663294351e-10)
(1.464769541e-05 -4.288982413e-19 8.118093044e-09)
(1.464919655e-05 -1.947275868e-19 1.78864688e-08)
(1.465074634e-05 1.257908359e-19 2.952602622e-08)
(1.465234505e-05 5.438141773e-19 4.303950591e-08)
(1.465399099e-05 1.068622569e-18 5.834366789e-08)
(1.465568331e-05 1.707499235e-18 7.528119327e-08)
(1.465741892e-05 2.463776078e-18 9.358177405e-08)
(1.465919545e-05 3.336896736e-18 1.128833565e-07)
(1.466100825e-05 4.319879438e-18 1.326926372e-07)
(1.466285378e-05 5.399691879e-18 1.524167632e-07)
(1.46647267e-05 6.554284903e-18 1.713289409e-07)
(1.466662382e-05 7.753415195e-18 1.886098159e-07)
(1.466854141e-05 8.955577172e-18 2.033248017e-07)
(1.467047957e-05 1.01093642e-17 2.144714806e-07)
(1.467243975e-05 1.115081091e-17 2.209751564e-07)
(1.467442908e-05 1.200529675e-17 2.217349098e-07)
(1.467645764e-05 1.258596072e-17 2.156424206e-07)
(1.467854231e-05 1.279595433e-17 2.016152243e-07)
(1.468070286e-05 1.252868779e-17 1.786411395e-07)
(1.468296474e-05 1.1669928e-17 1.457835493e-07)
(1.468535319e-05 1.010057446e-17 1.022502256e-07)
(1.468789456e-05 7.697675607e-18 4.735313895e-08)
(1.4690608e-05 4.340184826e-18 -1.940290518e-08)
(1.469350543e-05 -9.256164636e-20 -9.842332266e-08)
(1.469658109e-05 -5.712127874e-18 -1.899218191e-07)
(1.469981078e-05 -1.262708453e-17 -2.941004215e-07)
(1.470313996e-05 -2.093188639e-17 -4.110400225e-07)
(1.470648278e-05 -3.072011688e-17 -5.409653954e-07)
(1.470970889e-05 -4.207213506e-17 -6.841299178e-07)
)
;

boundaryField
{
    left
    {
        type            calculated;
        value           uniform (-1.462487682e-05 -4.517226351e-14 -1.707978461e-09);
    }
    right
    {
        type            calculated;
        value           uniform (1.471264101e-05 -4.522219646e-14 -8.411668737e-07);
    }
    beam
    {
        type            empty;
        value           nonuniform List<vector> 0();
    }
}


// ************************************************************************* //
