/*--------------------------------*- C++ -*----------------------------------*\
| =========                 |                                                 |
| \\      /  F ield         | OpenFOAM: The Open Source CFD Toolbox           |
|  \\    /   O peration     | Version:  2312                                  |
|   \\  /    A nd           | Website:  www.openfoam.com                      |
|    \\/     M anipulation  |                                                 |
\*---------------------------------------------------------------------------*/
FoamFile
{
    version     2.0;
    format      ascii;
    arch        "LSB;label=32;scalar=64";
    class       surfaceVectorField;
    location    "0.05/beam";
    object      K;
}
// * * * * * * * * * * * * * * * * * * * * * * * * * * * * * * * * * * * * * //

dimensions      [0 -1 0 0 0 0 0];

oriented        oriented;

internalField   nonuniform List<vector> 
59
(
(-2.016903303e-20 1.888128278e-05 -4.928618803e-16)
(-4.033777327e-20 3.765782121e-05 -9.899509038e-16)
(-6.051173838e-20 5.618683061e-05 -1.493903269e-15)
(-8.068833025e-20 7.4250445e-05 -2.004350175e-15)
(-1.008721345e-19 9.15207239e-05 -2.516919479e-15)
(-1.210519232e-19 0.0001075278979 -3.022694836e-15)
(-1.41228708e-19 0.000121633154 -3.508055279e-15)
(-1.614177934e-19 0.0001330073996 -3.954787633e-15)
(-1.816030459e-19 0.0001406177312 -4.3401638e-15)
(-2.018353555e-19 0.00014322349 -4.63698108e-15)
(-2.22086378e-19 0.000139383871 -4.813375257e-15)
(-2.42364613e-19 0.0001274792702 -4.832381559e-15)
(-2.626721763e-19 0.0001057485115 -4.651411505e-15)
(-2.830144521e-19 7.23440737e-05 -4.22165498e-15)
(-3.034013153e-19 2.540718279e-05 -3.487655716e-15)
(-3.238462685e-19 -3.683574998e-05 -2.387283414e-15)
(-3.443748456e-19 -0.0001159543938 -8.523810115e-16)
(-3.650257813e-19 -0.0002131733534 1.189639917e-15)
(-3.858646002e-19 -0.0003292094557 3.81301615e-15)
(-4.069716317e-19 -0.0004640895587 7.089425086e-15)
(-4.284844299e-19 -0.0006169524363 1.108220162e-14)
(-4.506147514e-19 -0.0007858349849 1.583874397e-14)
(-4.734878734e-19 -0.0009674741134 2.138172293e-14)
(-4.973999526e-19 -0.001157090869 2.769815748e-14)
(-5.22574164e-19 -0.001348188362 3.472681651e-14)
(-5.492875705e-19 -0.001532401934 4.234533823e-14)
(-5.777873115e-19 -0.001699377998 5.035613441e-14)
(-6.082435579e-19 -0.001836707905 5.847217506e-14)
(-6.408923556e-19 -0.001929946854 6.630360534e-14)
(-7.021069608e-19 -0.001962712137 7.334768814e-14)
(-7.661617145e-19 -0.001916902525 7.897732796e-14)
(-8.077679487e-19 -0.001773023865 8.243056674e-14)
(-8.541172737e-19 -0.001510665034 8.281417517e-14)
(-9.072495318e-19 -0.001109097465 7.911060774e-14)
(-9.702333225e-19 -0.000548037785 7.018918732e-14)
(-1.047853728e-18 0.0001914662661 5.482754947e-14)
(-1.146850982e-18 0.001126000534 3.174455842e-14)
(-1.276600319e-18 0.002268651264 -3.563088653e-16)
(-1.448984581e-18 0.003627770902 -4.272988455e-14)
(-1.678899353e-18 0.005205700655 -9.652025917e-14)
(-1.982974489e-18 0.006997478131 -1.626773975e-13)
(-2.379317121e-18 0.008989583727 -2.418618767e-13)
(-2.885302442e-18 0.01115879039 -3.343372011e-13)
(-3.515227155e-18 0.01347115047 -4.398526756e-13)
(-4.275677902e-18 0.01588122003 -5.575190923e-13)
(-5.163398266e-18 0.0183315138 -6.856802499e-13)
(-6.156832701e-18 0.02075231874 -8.217862202e-13)
(-7.216272362e-18 0.02306179648 -9.622703322e-13)
(-8.276328038e-18 0.02516651501 -1.102439956e-12)
(-9.249332978e-18 0.02696225639 -1.236380301e-12)
(-1.002454884e-17 0.02833523369 -1.356885138e-12)
(-1.047945501e-17 0.02916346752 -1.455408578e-12)
(-1.049149355e-17 0.02931842965 -1.522054255e-12)
(-9.967891203e-18 0.02866660795 -1.545588034e-12)
(-8.850723999e-18 0.0270710642 -1.513490447e-12)
(-7.163588425e-18 0.02439256062 -1.412023683e-12)
(-5.059300445e-18 0.02049029486 -1.22632625e-12)
(-2.826734837e-18 0.01522177507 -9.404960089e-13)
(-9.274203512e-19 0.00844186531 -5.376681926e-13)
)
;

boundaryField
{
    left
    {
        type            calculated;
        value           uniform (4.831160566e-35 -9.629677608e-35 6.145463767e-38);
    }
    right
    {
        type            calculated;
        value           uniform (-5.711929524e-31 5.00765949e-30 -1.363585376e-32);
    }
    beam
    {
        type            empty;
        value           nonuniform List<vector> 0();
    }
}


// ************************************************************************* //
