/*--------------------------------*- C++ -*----------------------------------*\
| =========                 |                                                 |
| \\      /  F ield         | OpenFOAM: The Open Source CFD Toolbox           |
|  \\    /   O peration     | Version:  2312                                  |
|   \\  /    A nd           | Website:  www.openfoam.com                      |
|    \\/     M anipulation  |                                                 |
\*---------------------------------------------------------------------------*/
FoamFile
{
    version     2.0;
    format      ascii;
    arch        "LSB;label=32;scalar=64";
    class       surfaceVectorField;
    location    "0.05/beam";
    object      M;
}
// * * * * * * * * * * * * * * * * * * * * * * * * * * * * * * * * * * * * * //

dimensions      [1 2 -2 0 0 0 0];

oriented        oriented;

internalField   nonuniform List<vector> 
59
(
(-1.393071613e-23 1.138892544e-08 -2.972243862e-19)
(-2.790931341e-23 2.271467054e-08 -5.96998875e-19)
(-4.202031057e-23 3.389110961e-08 -9.009140612e-19)
(-5.642112541e-23 4.478682892e-08 -1.208748217e-18)
(-7.137087141e-23 5.520401937e-08 -1.517865221e-18)
(-8.725468639e-23 6.485932265e-08 -1.822888424e-18)
(-1.046098912e-22 7.336741563e-08 -2.115603984e-18)
(-1.241577813e-22 8.022820133e-08 -2.385028733e-18)
(-1.468488328e-22 8.481864681e-08 -2.617456849e-18)
(-1.739148214e-22 8.639040402e-08 -2.79648418e-18)
(-2.069184197e-22 8.407439959e-08 -2.902895488e-18)
(-2.477859143e-22 7.689371109e-08 -2.914399542e-18)
(-2.988066116e-22 6.378602165e-08 -2.805313443e-18)
(-3.625925431e-22 4.363693244e-08 -2.546201779e-18)
(-4.420044191e-22 1.532525696e-08 -2.103620305e-18)
(-5.400682244e-22 -2.221880868e-08 -1.440098813e-18)
(-6.599350318e-22 -6.9942067e-08 -5.145311538e-19)
(-8.049589132e-22 -1.285831824e-07 7.168629079e-19)
(-9.789783701e-22 -1.985745348e-07 2.298859567e-18)
(-1.186899131e-21 -2.799323246e-07 4.274693536e-18)
(-1.435643567e-21 -3.721370723e-07 6.682570413e-18)
(-1.735481749e-21 -4.740046612e-07 9.551086688e-18)
(-2.101768426e-21 -5.835668406e-07 1.289392795e-17)
(-2.556881301e-21 -6.97941013e-07 1.670328017e-17)
(-3.132054174e-21 -8.132083453e-07 2.094223127e-17)
(-3.869020439e-21 -9.243233933e-07 2.553700224e-17)
(-4.820729902e-21 -1.025041017e-06 3.036844514e-17)
(-6.051044571e-21 -1.107876494e-06 3.526346885e-17)
(-7.63281953e-21 -1.164116923e-06 3.998696654e-17)
(-9.645367175e-21 -1.183880483e-06 4.42357488e-17)
(-1.217082307e-20 -1.156248766e-06 4.763162072e-17)
(-1.528698159e-20 -1.069463173e-06 4.971504475e-17)
(-1.906463235e-20 -9.11211999e-07 4.99473054e-17)
(-2.357233512e-20 -6.689920636e-07 4.771470244e-17)
(-2.888761927e-20 -3.305687194e-07 4.233529469e-17)
(-3.512393104e-20 1.154897712e-07 3.307183193e-17)
(-4.247841676e-20 6.79187758e-07 1.915160594e-17)
(-5.130709027e-20 1.368418682e-06 -2.073846885e-19)
(-6.223152409e-20 2.188220619e-06 -2.576200996e-17)
(-7.627943438e-20 3.140005755e-06 -5.820236221e-17)
(-9.505341773e-20 4.220780844e-06 -9.810146408e-17)
(-1.209170394e-19 5.42239105e-06 -1.458578116e-16)
(-1.571699556e-19 6.730826138e-06 -2.016304228e-16)
(-2.081775179e-19 8.125609368e-06 -2.652681905e-16)
(-2.793929581e-19 9.579329588e-06 -3.362348984e-16)
(-3.772089356e-19 1.105731249e-05 -4.135317221e-16)
(-5.08545258e-19 1.251750813e-05 -4.956207829e-16)
(-6.800963815e-19 1.391055277e-05 -5.803509425e-16)
(-8.971470153e-19 1.518008952e-05 -6.648919235e-16)
(-1.161913472e-18 1.626325558e-05 -7.456762808e-16)
(-1.471395841e-18 1.709141627e-05 -8.183576227e-16)
(-1.814807523e-18 1.759099532e-05 -8.777815346e-16)
(-2.170745851e-18 1.76844663e-05 -9.179790832e-16)
(-2.504345213e-18 1.729129658e-05 -9.321745151e-16)
(-2.764823583e-18 1.632888693e-05 -9.128169289e-16)
(-2.883817351e-18 1.471325107e-05 -8.51620727e-16)
(-2.775108848e-18 1.235945899e-05 -7.396227487e-16)
(-2.336112676e-18 9.181561618e-06 -5.672323539e-16)
(-1.451661181e-18 5.092014969e-06 -3.242784351e-16)
)
;

boundaryField
{
    left
    {
        type            calculated;
        value           uniform (5.828167173e-38 -5.808486718e-38 3.729886629e-41);
    }
    right
    {
        type            calculated;
        value           uniform (-6.891118003e-34 3.020550097e-33 3.178093029e-36);
    }
    beam
    {
        type            empty;
        value           nonuniform List<vector> 0();
    }
}


// ************************************************************************* //
