/*--------------------------------*- C++ -*----------------------------------*\
| =========                 |                                                 |
| \\      /  F ield         | OpenFOAM: The Open Source CFD Toolbox           |
|  \\    /   O peration     | Version:  2312                                  |
|   \\  /    A nd           | Website:  www.openfoam.com                      |
|    \\/     M anipulation  |                                                 |
\*---------------------------------------------------------------------------*/
FoamFile
{
    version     2.0;
    format      ascii;
    arch        "LSB;label=32;scalar=64";
    class       pointVectorField;
    location    "0.05/beam";
    object      pointW;
}
// * * * * * * * * * * * * * * * * * * * * * * * * * * * * * * * * * * * * * //

dimensions      [0 1 0 0 0 0 0];

internalField   nonuniform List<vector> 
1952
(
(1.579326471e-08 2.212674972e-17 -3.635105238e-12)
(1.548979713e-08 2.168404345e-17 -3.565260934e-12)
(1.45910814e-08 2.038300084e-17 -3.358409904e-12)
(1.313162581e-08 1.82145965e-17 -3.022493714e-12)
(1.116753592e-08 1.561251128e-17 -2.570426077e-12)
(8.774264073e-09 1.214306433e-17 -2.019574178e-12)
(6.04380602e-09 8.67361738e-18 -1.391111618e-12)
(3.081111958e-09 4.33680869e-18 -7.091953977e-13)
(-3.241016293e-18 0 -2.212676253e-17)
(-3.081111964e-09 -4.33680869e-18 7.091519212e-13)
(-6.043806026e-09 -8.67361738e-18 1.391070852e-12)
(-8.774264078e-09 -1.214306433e-17 2.019537315e-12)
(-1.116753593e-08 -1.561251128e-17 2.570394852e-12)
(-1.313162581e-08 -1.82145965e-17 3.022468994e-12)
(-1.45910814e-08 -2.038300084e-17 3.358392991e-12)
(-1.548979713e-08 -2.168404345e-17 3.56525226e-12)
(-1.579326471e-08 -2.212674972e-17 3.635105238e-12)
(-1.548979713e-08 -2.168404345e-17 3.565260934e-12)
(-1.45910814e-08 -2.038300084e-17 3.358409904e-12)
(-1.313162581e-08 -1.82145965e-17 3.022493714e-12)
(-1.116753592e-08 -1.561251128e-17 2.570426077e-12)
(-8.774264073e-09 -1.214306433e-17 2.019574178e-12)
(-6.04380602e-09 -8.67361738e-18 1.391111618e-12)
(-3.081111958e-09 -4.33680869e-18 7.091953977e-13)
(3.241014795e-18 0 2.212676253e-17)
(3.081111964e-09 4.33680869e-18 -7.091519212e-13)
(6.043806026e-09 8.67361738e-18 -1.391070852e-12)
(8.774264078e-09 1.214306433e-17 -2.019537315e-12)
(1.116753593e-08 1.561251128e-17 -2.570394852e-12)
(1.313162581e-08 1.82145965e-17 -3.022468994e-12)
(1.45910814e-08 2.038300084e-17 -3.358392991e-12)
(1.548979713e-08 2.168404345e-17 -3.56525226e-12)
(6.615984477e-07 9.860139679e-16 1.65633047e-07)
(6.613271065e-07 9.855397748e-16 1.656331133e-07)
(6.605235326e-07 9.842387322e-16 1.656333095e-07)
(6.592185811e-07 9.818534874e-16 1.656336281e-07)
(6.57462418e-07 9.792514022e-16 1.656340569e-07)
(6.553225079e-07 9.757819552e-16 1.656345793e-07)
(6.528811076e-07 9.723125083e-16 1.656351754e-07)
(6.502320567e-07 9.679756996e-16 1.656358222e-07)
(6.474771242e-07 9.636388909e-16 1.656364948e-07)
(6.447221916e-07 9.593020822e-16 1.656371675e-07)
(6.420731408e-07 9.549652735e-16 1.656378143e-07)
(6.396317404e-07 9.514958266e-16 1.656384103e-07)
(6.374918304e-07 9.480263796e-16 1.656389328e-07)
(6.357356673e-07 9.454242944e-16 1.656393616e-07)
(6.344307158e-07 9.434727305e-16 1.656396802e-07)
(6.336271419e-07 9.421716879e-16 1.656398764e-07)
(6.333558006e-07 9.41760307e-16 1.656399427e-07)
(6.336271419e-07 9.421716879e-16 1.656398764e-07)
(6.344307158e-07 9.434727305e-16 1.656396802e-07)
(6.357356673e-07 9.454242944e-16 1.656393616e-07)
(6.374918304e-07 9.480263796e-16 1.656389328e-07)
(6.396317405e-07 9.514958266e-16 1.656384104e-07)
(6.420731408e-07 9.549652735e-16 1.656378143e-07)
(6.447221916e-07 9.593020822e-16 1.656371675e-07)
(6.474771242e-07 9.636388909e-16 1.656364949e-07)
(6.502320567e-07 9.679756996e-16 1.656358222e-07)
(6.528811076e-07 9.723125083e-16 1.656351755e-07)
(6.553225079e-07 9.757819552e-16 1.656345794e-07)
(6.57462418e-07 9.792514022e-16 1.656340569e-07)
(6.592185811e-07 9.818534874e-16 1.656336281e-07)
(6.605235326e-07 9.842387322e-16 1.656333095e-07)
(6.613271065e-07 9.855397748e-16 1.656331133e-07)
(1.304073852e-06 9.489388604e-16 2.943080542e-07)
(1.30389871e-06 9.484600605e-16 2.943081157e-07)
(1.303380028e-06 9.471590179e-16 2.943082978e-07)
(1.302537724e-06 9.449906135e-16 2.943085935e-07)
(1.301404176e-06 9.423885283e-16 2.943089914e-07)
(1.300022933e-06 9.389190814e-16 2.943094763e-07)
(1.298447087e-06 9.354496344e-16 2.943100296e-07)
(1.296737209e-06 9.306791449e-16 2.943106299e-07)
(1.294958988e-06 9.263423362e-16 2.943112541e-07)
(1.293180767e-06 9.220055275e-16 2.943118784e-07)
(1.291470889e-06 9.181023997e-16 2.943124787e-07)
(1.289895043e-06 9.146329527e-16 2.943130319e-07)
(1.288513799e-06 9.111635058e-16 2.943135168e-07)
(1.287380252e-06 9.085614205e-16 2.943139148e-07)
(1.286537948e-06 9.063930162e-16 2.943142105e-07)
(1.286019266e-06 9.050919736e-16 2.943143926e-07)
(1.285844124e-06 9.046850385e-16 2.943144541e-07)
(1.286019266e-06 9.050919736e-16 2.943143926e-07)
(1.286537948e-06 9.063930162e-16 2.943142105e-07)
(1.287380252e-06 9.085614205e-16 2.943139148e-07)
(1.288513799e-06 9.111635058e-16 2.943135169e-07)
(1.289895043e-06 9.146329527e-16 2.94313032e-07)
(1.291470889e-06 9.181023997e-16 2.943124787e-07)
(1.293180767e-06 9.220055275e-16 2.943118784e-07)
(1.294958988e-06 9.263423362e-16 2.943112542e-07)
(1.296737209e-06 9.306791449e-16 2.943106299e-07)
(1.298447087e-06 9.354496344e-16 2.943100296e-07)
(1.300022933e-06 9.389190814e-16 2.943094764e-07)
(1.301404177e-06 9.423885283e-16 2.943089915e-07)
(1.302537724e-06 9.449906135e-16 2.943085935e-07)
(1.303380028e-06 9.471590179e-16 2.943082978e-07)
(1.30389871e-06 9.484600605e-16 2.943081157e-07)
(1.943252634e-06 9.099234138e-16 3.492824676e-07)
(1.943237169e-06 9.094287823e-16 3.492825252e-07)
(1.943191371e-06 9.083445801e-16 3.49282696e-07)
(1.943116996e-06 9.059593353e-16 3.492829732e-07)
(1.943016906e-06 9.033572501e-16 3.492833464e-07)
(1.942894944e-06 8.998878032e-16 3.492838011e-07)
(1.942755799e-06 8.964183562e-16 3.492843199e-07)
(1.94260482e-06 8.916478667e-16 3.492848828e-07)
(1.942447806e-06 8.87311058e-16 3.492854682e-07)
(1.942290791e-06 8.829742493e-16 3.492860535e-07)
(1.942139812e-06 8.790711215e-16 3.492866164e-07)
(1.942000667e-06 8.756016745e-16 3.492871352e-07)
(1.941878705e-06 8.721322275e-16 3.492875899e-07)
(1.941778615e-06 8.695301423e-16 3.492879631e-07)
(1.941704241e-06 8.675785784e-16 3.492882404e-07)
(1.941658442e-06 8.660606954e-16 3.492884111e-07)
(1.941642977e-06 8.656695916e-16 3.492884688e-07)
(1.941658442e-06 8.660606954e-16 3.492884111e-07)
(1.941704241e-06 8.675785784e-16 3.492882404e-07)
(1.941778615e-06 8.695301423e-16 3.492879631e-07)
(1.941878705e-06 8.721322275e-16 3.492875899e-07)
(1.942000667e-06 8.756016745e-16 3.492871352e-07)
(1.942139812e-06 8.790711215e-16 3.492866165e-07)
(1.942290791e-06 8.829742493e-16 3.492860536e-07)
(1.942447806e-06 8.87311058e-16 3.492854682e-07)
(1.94260482e-06 8.916478667e-16 3.492848828e-07)
(1.942755799e-06 8.964183562e-16 3.492843199e-07)
(1.942894944e-06 8.998878032e-16 3.492838011e-07)
(1.943016906e-06 9.033572501e-16 3.492833464e-07)
(1.943116996e-06 9.059593353e-16 3.492829733e-07)
(1.943191371e-06 9.083445801e-16 3.49282696e-07)
(1.943237169e-06 9.094287823e-16 3.492825252e-07)
(2.579199766e-06 8.679771231e-16 2.943384339e-07)
(2.579406242e-06 8.674701582e-16 2.943384869e-07)
(2.580017718e-06 8.662775358e-16 2.943386439e-07)
(2.581010715e-06 8.643259719e-16 2.943388988e-07)
(2.58234706e-06 8.617238867e-16 2.94339242e-07)
(2.583975414e-06 8.582544397e-16 2.943396601e-07)
(2.585833187e-06 8.547849928e-16 2.943401371e-07)
(2.58784897e-06 8.500145032e-16 2.943406547e-07)
(2.589945324e-06 8.456776945e-16 2.94341193e-07)
(2.592041677e-06 8.413408858e-16 2.943417312e-07)
(2.594057461e-06 8.37437758e-16 2.943422488e-07)
(2.595915233e-06 8.339683111e-16 2.943427258e-07)
(2.597543588e-06 8.304988641e-16 2.94343144e-07)
(2.598879933e-06 8.278967789e-16 2.943434871e-07)
(2.59987293e-06 8.255115341e-16 2.943437421e-07)
(2.600484405e-06 8.241020713e-16 2.943438991e-07)
(2.600690881e-06 8.23723301e-16 2.943439521e-07)
(2.600484405e-06 8.241020713e-16 2.943438991e-07)
(2.59987293e-06 8.255115341e-16 2.943437421e-07)
(2.598879933e-06 8.278967789e-16 2.943434871e-07)
(2.597543588e-06 8.304988641e-16 2.94343144e-07)
(2.595915233e-06 8.339683111e-16 2.943427259e-07)
(2.594057461e-06 8.37437758e-16 2.943422489e-07)
(2.592041677e-06 8.413408858e-16 2.943417313e-07)
(2.589945324e-06 8.456776945e-16 2.94341193e-07)
(2.58784897e-06 8.500145032e-16 2.943406547e-07)
(2.585833187e-06 8.547849928e-16 2.943401371e-07)
(2.583975414e-06 8.582544397e-16 2.943396601e-07)
(2.58234706e-06 8.617238867e-16 2.94339242e-07)
(2.581010715e-06 8.643259719e-16 2.943388989e-07)
(2.580017718e-06 8.662775358e-16 2.943386439e-07)
(2.579406242e-06 8.674701582e-16 2.943384869e-07)
(3.212028699e-06 8.221007108e-16 9.422624137e-08)
(3.21251723e-06 8.217168265e-16 9.422628918e-08)
(3.213964011e-06 8.203073637e-16 9.42264308e-08)
(3.216313488e-06 8.183557998e-16 9.422666077e-08)
(3.219475341e-06 8.157537146e-16 9.422697026e-08)
(3.223328105e-06 8.122842676e-16 9.422734739e-08)
(3.227723682e-06 8.088148207e-16 9.422777765e-08)
(3.232493119e-06 8.040443311e-16 9.42282445e-08)
(3.23745319e-06 7.997075224e-16 9.422873001e-08)
(3.24241326e-06 7.953707137e-16 9.422921553e-08)
(3.247182697e-06 7.914675859e-16 9.422968239e-08)
(3.251578274e-06 7.87998139e-16 9.423011265e-08)
(3.255431038e-06 7.84528692e-16 9.423048978e-08)
(3.258592891e-06 7.819266068e-16 9.423079928e-08)
(3.260942368e-06 7.79541362e-16 9.423102926e-08)
(3.262389149e-06 7.783487396e-16 9.423117088e-08)
(3.262877681e-06 7.778469676e-16 9.42312187e-08)
(3.262389149e-06 7.783487396e-16 9.423117089e-08)
(3.260942368e-06 7.79541362e-16 9.423102928e-08)
(3.258592891e-06 7.819266068e-16 9.42307993e-08)
(3.255431038e-06 7.84528692e-16 9.423048981e-08)
(3.251578274e-06 7.87998139e-16 9.423011268e-08)
(3.247182697e-06 7.914675859e-16 9.422968243e-08)
(3.24241326e-06 7.953707137e-16 9.422921557e-08)
(3.23745319e-06 7.997075224e-16 9.422873006e-08)
(3.232493119e-06 8.040443311e-16 9.422824454e-08)
(3.227723682e-06 8.088148207e-16 9.422777769e-08)
(3.223328105e-06 8.122842676e-16 9.422734743e-08)
(3.219475341e-06 8.157537146e-16 9.42269703e-08)
(3.216313488e-06 8.183557998e-16 9.42266608e-08)
(3.213964011e-06 8.203073637e-16 9.422643081e-08)
(3.21251723e-06 8.217168265e-16 9.422628919e-08)
(3.841922548e-06 7.712965621e-16 -2.846788516e-07)
(3.842749756e-06 7.708677446e-16 -2.846788106e-07)
(3.84519952e-06 7.69566702e-16 -2.846786892e-07)
(3.849177778e-06 7.676151381e-16 -2.84678492e-07)
(3.854531593e-06 7.650130529e-16 -2.846782267e-07)
(3.861055293e-06 7.61543606e-16 -2.846779034e-07)
(3.868498113e-06 7.58074159e-16 -2.846775346e-07)
(3.876573974e-06 7.537373503e-16 -2.846771344e-07)
(3.884972624e-06 7.494005416e-16 -2.846767182e-07)
(3.893371274e-06 7.450637329e-16 -2.84676302e-07)
(3.901447134e-06 7.407269242e-16 -2.846759018e-07)
(3.908889954e-06 7.372574773e-16 -2.846755329e-07)
(3.915413655e-06 7.337880303e-16 -2.846752096e-07)
(3.92076747e-06 7.311859451e-16 -2.846749443e-07)
(3.924745728e-06 7.288007003e-16 -2.846747472e-07)
(3.927195492e-06 7.274996577e-16 -2.846746258e-07)
(3.928022699e-06 7.270428151e-16 -2.846745848e-07)
(3.927195492e-06 7.274996577e-16 -2.846746258e-07)
(3.924745728e-06 7.288007003e-16 -2.846747472e-07)
(3.92076747e-06 7.311859451e-16 -2.846749443e-07)
(3.915413655e-06 7.337880303e-16 -2.846752096e-07)
(3.908889954e-06 7.372574773e-16 -2.846755329e-07)
(3.901447134e-06 7.407269242e-16 -2.846759017e-07)
(3.893371274e-06 7.450637329e-16 -2.846763019e-07)
(3.884972624e-06 7.494005416e-16 -2.846767181e-07)
(3.876573974e-06 7.537373503e-16 -2.846771344e-07)
(3.868498113e-06 7.58074159e-16 -2.846775346e-07)
(3.861055293e-06 7.61543606e-16 -2.846779034e-07)
(3.854531593e-06 7.650130529e-16 -2.846782267e-07)
(3.849177778e-06 7.676151381e-16 -2.84678492e-07)
(3.84519952e-06 7.69566702e-16 -2.846786892e-07)
(3.842749756e-06 7.708677446e-16 -2.846788106e-07)
(4.469162009e-06 7.145872783e-16 -8.734471241e-07)
(4.470379135e-06 7.140555508e-16 -8.73447092e-07)
(4.473983641e-06 7.129713486e-16 -8.734469969e-07)
(4.479837124e-06 7.108029443e-16 -8.734468423e-07)
(4.487714558e-06 7.082008591e-16 -8.734466344e-07)
(4.497313326e-06 7.047314121e-16 -8.73446381e-07)
(4.508264456e-06 7.012619652e-16 -8.734460919e-07)
(4.520147023e-06 6.964914756e-16 -8.734457782e-07)
(4.532504531e-06 6.921546669e-16 -8.734454519e-07)
(4.54486204e-06 6.878178582e-16 -8.734451257e-07)
(4.556744606e-06 6.839147304e-16 -8.73444812e-07)
(4.567695737e-06 6.804452835e-16 -8.734445229e-07)
(4.577294504e-06 6.769758365e-16 -8.734442695e-07)
(4.585171939e-06 6.743737513e-16 -8.734440615e-07)
(4.591025421e-06 6.722053469e-16 -8.734439069e-07)
(4.594629928e-06 6.706874639e-16 -8.734438118e-07)
(4.595847054e-06 6.703336033e-16 -8.734437796e-07)
(4.594629928e-06 6.706874639e-16 -8.734438118e-07)
(4.591025421e-06 6.722053469e-16 -8.734439069e-07)
(4.585171939e-06 6.743737513e-16 -8.734440615e-07)
(4.577294504e-06 6.769758365e-16 -8.734442694e-07)
(4.567695737e-06 6.804452835e-16 -8.734445228e-07)
(4.556744606e-06 6.839147304e-16 -8.734448119e-07)
(4.54486204e-06 6.878178582e-16 -8.734451256e-07)
(4.532504531e-06 6.921546669e-16 -8.734454519e-07)
(4.520147023e-06 6.964914756e-16 -8.734457781e-07)
(4.508264456e-06 7.012619652e-16 -8.734460918e-07)
(4.497313326e-06 7.047314121e-16 -8.734463809e-07)
(4.487714558e-06 7.082008591e-16 -8.734466343e-07)
(4.479837124e-06 7.108029443e-16 -8.734468423e-07)
(4.473983641e-06 7.129713486e-16 -8.734469968e-07)
(4.470379135e-06 7.140555508e-16 -8.73447092e-07)
(5.094158544e-06 6.510318102e-16 -1.699326691e-06)
(5.095808937e-06 6.506297237e-16 -1.69932667e-06)
(5.100696558e-06 6.492202609e-16 -1.699326609e-06)
(5.108633733e-06 6.470518565e-16 -1.699326511e-06)
(5.119315337e-06 6.444497713e-16 -1.699326378e-06)
(5.132331026e-06 6.409803244e-16 -1.699326217e-06)
(5.147180484e-06 6.375108774e-16 -1.699326033e-06)
(5.163292946e-06 6.331740687e-16 -1.699325833e-06)
(5.180049419e-06 6.2883726e-16 -1.699325625e-06)
(5.196805891e-06 6.245004514e-16 -1.699325417e-06)
(5.212918353e-06 6.201636427e-16 -1.699325217e-06)
(5.227767812e-06 6.166941957e-16 -1.699325033e-06)
(5.2407835e-06 6.132247488e-16 -1.699324871e-06)
(5.251465104e-06 6.106226635e-16 -1.699324739e-06)
(5.25940228e-06 6.084542592e-16 -1.69932464e-06)
(5.2642899e-06 6.072616368e-16 -1.69932458e-06)
(5.265940293e-06 6.067781218e-16 -1.699324559e-06)
(5.2642899e-06 6.072616368e-16 -1.69932458e-06)
(5.25940228e-06 6.084542592e-16 -1.69932464e-06)
(5.251465104e-06 6.106226635e-16 -1.699324739e-06)
(5.2407835e-06 6.132247488e-16 -1.699324871e-06)
(5.227767812e-06 6.166941957e-16 -1.699325033e-06)
(5.212918353e-06 6.201636427e-16 -1.699325217e-06)
(5.196805891e-06 6.245004514e-16 -1.699325417e-06)
(5.180049419e-06 6.2883726e-16 -1.699325625e-06)
(5.163292946e-06 6.331740687e-16 -1.699325833e-06)
(5.147180484e-06 6.375108774e-16 -1.699326033e-06)
(5.132331026e-06 6.409803244e-16 -1.699326217e-06)
(5.119315337e-06 6.444497713e-16 -1.699326378e-06)
(5.108633733e-06 6.470518565e-16 -1.699326511e-06)
(5.100696558e-06 6.492202609e-16 -1.699326609e-06)
(5.095808937e-06 6.506297237e-16 -1.69932667e-06)
(5.717487355e-06 5.797684925e-16 -2.784109907e-06)
(5.719603314e-06 5.79397641e-16 -2.784109901e-06)
(5.725869701e-06 5.778797579e-16 -2.784109884e-06)
(5.736045905e-06 5.75928194e-16 -2.784109857e-06)
(5.749740723e-06 5.733261088e-16 -2.78410982e-06)
(5.766428056e-06 5.698566619e-16 -2.784109775e-06)
(5.785466455e-06 5.663872149e-16 -2.784109724e-06)
(5.806124143e-06 5.620504062e-16 -2.784109668e-06)
(5.827607512e-06 5.577135975e-16 -2.784109611e-06)
(5.849090881e-06 5.533767888e-16 -2.784109553e-06)
(5.869748569e-06 5.490399801e-16 -2.784109497e-06)
(5.888786967e-06 5.455705332e-16 -2.784109446e-06)
(5.905474301e-06 5.421010862e-16 -2.784109401e-06)
(5.919169119e-06 5.39499001e-16 -2.784109365e-06)
(5.929345322e-06 5.371137562e-16 -2.784109337e-06)
(5.93561171e-06 5.360295541e-16 -2.78410932e-06)
(5.937727669e-06 5.355148646e-16 -2.784109315e-06)
(5.93561171e-06 5.360295541e-16 -2.78410932e-06)
(5.929345322e-06 5.371137562e-16 -2.784109337e-06)
(5.919169119e-06 5.39499001e-16 -2.784109365e-06)
(5.905474301e-06 5.421010862e-16 -2.784109401e-06)
(5.888786967e-06 5.455705332e-16 -2.784109446e-06)
(5.869748569e-06 5.490399801e-16 -2.784109497e-06)
(5.849090881e-06 5.533767888e-16 -2.784109553e-06)
(5.827607512e-06 5.577135975e-16 -2.784109611e-06)
(5.806124143e-06 5.620504062e-16 -2.784109668e-06)
(5.785466455e-06 5.663872149e-16 -2.784109724e-06)
(5.766428056e-06 5.698566619e-16 -2.784109775e-06)
(5.749740723e-06 5.733261088e-16 -2.78410982e-06)
(5.736045905e-06 5.75928194e-16 -2.784109857e-06)
(5.725869701e-06 5.778797579e-16 -2.784109884e-06)
(5.719603314e-06 5.79397641e-16 -2.784109901e-06)
(6.339924556e-06 5.000501752e-16 -4.142112806e-06)
(6.342523468e-06 4.996003611e-16 -4.142112818e-06)
(6.350220115e-06 4.982993185e-16 -4.142112855e-06)
(6.362718967e-06 4.961309141e-16 -4.142112914e-06)
(6.379539533e-06 4.935288289e-16 -4.142112994e-06)
(6.400035635e-06 4.90059382e-16 -4.142113092e-06)
(6.423419417e-06 4.86589935e-16 -4.142113203e-06)
(6.44879208e-06 4.822531263e-16 -4.142113324e-06)
(6.475178879e-06 4.779163176e-16 -4.142113449e-06)
(6.501565679e-06 4.735795089e-16 -4.142113575e-06)
(6.526938342e-06 4.692427003e-16 -4.142113696e-06)
(6.550322124e-06 4.657732533e-16 -4.142113807e-06)
(6.570818226e-06 4.623038063e-16 -4.142113905e-06)
(6.587638791e-06 4.597017211e-16 -4.142113985e-06)
(6.600137643e-06 4.575333168e-16 -4.142114044e-06)
(6.607834291e-06 4.562322742e-16 -4.142114081e-06)
(6.610433202e-06 4.557965227e-16 -4.142114093e-06)
(6.607834291e-06 4.562322742e-16 -4.142114081e-06)
(6.600137643e-06 4.575333168e-16 -4.142114044e-06)
(6.587638791e-06 4.597017211e-16 -4.142113985e-06)
(6.570818226e-06 4.623038063e-16 -4.142113905e-06)
(6.550322124e-06 4.657732533e-16 -4.142113807e-06)
(6.526938342e-06 4.692427003e-16 -4.142113696e-06)
(6.501565679e-06 4.735795089e-16 -4.142113575e-06)
(6.475178879e-06 4.779163176e-16 -4.142113449e-06)
(6.44879208e-06 4.822531263e-16 -4.142113324e-06)
(6.423419417e-06 4.86589935e-16 -4.142113203e-06)
(6.400035635e-06 4.90059382e-16 -4.142113092e-06)
(6.379539533e-06 4.935288289e-16 -4.142112994e-06)
(6.362718967e-06 4.961309141e-16 -4.142112914e-06)
(6.350220115e-06 4.982993185e-16 -4.142112855e-06)
(6.342523468e-06 4.996003611e-16 -4.142112818e-06)
(6.962484582e-06 4.113013267e-16 -5.777743928e-06)
(6.965564345e-06 4.109126234e-16 -5.777743961e-06)
(6.974685028e-06 4.093947403e-16 -5.77774406e-06)
(6.989496422e-06 4.07226336e-16 -5.777744219e-06)
(7.009429135e-06 4.046242508e-16 -5.777744434e-06)
(7.033717432e-06 4.011548038e-16 -5.777744696e-06)
(7.061427689e-06 3.976853569e-16 -5.777744995e-06)
(7.09149481e-06 3.93782229e-16 -5.777745319e-06)
(7.122763704e-06 3.894454204e-16 -5.777745656e-06)
(7.154032598e-06 3.851086117e-16 -5.777745993e-06)
(7.184099719e-06 3.803381221e-16 -5.777746318e-06)
(7.211809976e-06 3.768686752e-16 -5.777746616e-06)
(7.236098274e-06 3.733992282e-16 -5.777746878e-06)
(7.256030986e-06 3.70797143e-16 -5.777747093e-06)
(7.27084238e-06 3.686287386e-16 -5.777747253e-06)
(7.279963063e-06 3.675445365e-16 -5.777747351e-06)
(7.283042826e-06 3.670476468e-16 -5.777747384e-06)
(7.279963063e-06 3.675445365e-16 -5.777747351e-06)
(7.27084238e-06 3.686287386e-16 -5.777747253e-06)
(7.256030986e-06 3.70797143e-16 -5.777747093e-06)
(7.236098274e-06 3.733992282e-16 -5.777746878e-06)
(7.211809976e-06 3.768686752e-16 -5.777746616e-06)
(7.184099719e-06 3.803381221e-16 -5.777746317e-06)
(7.154032598e-06 3.851086117e-16 -5.777745993e-06)
(7.122763704e-06 3.894454204e-16 -5.777745656e-06)
(7.09149481e-06 3.93782229e-16 -5.777745319e-06)
(7.061427689e-06 3.976853569e-16 -5.777744995e-06)
(7.033717432e-06 4.011548038e-16 -5.777744696e-06)
(7.009429135e-06 4.046242508e-16 -5.777744434e-06)
(6.989496422e-06 4.07226336e-16 -5.777744219e-06)
(6.974685028e-06 4.093947403e-16 -5.77774406e-06)
(6.965564345e-06 4.109126234e-16 -5.777743961e-06)
(7.586452426e-06 3.131942694e-16 -7.682691088e-06)
(7.589986261e-06 3.127923268e-16 -7.682691144e-06)
(7.600451671e-06 3.113828639e-16 -7.682691309e-06)
(7.617446814e-06 3.096481405e-16 -7.682691577e-06)
(7.640318347e-06 3.070460552e-16 -7.682691937e-06)
(7.66818764e-06 3.035766083e-16 -7.682692376e-06)
(7.699983417e-06 3.001071613e-16 -7.682692877e-06)
(7.734483547e-06 2.957703527e-16 -7.68269342e-06)
(7.770362636e-06 2.91433544e-16 -7.682693985e-06)
(7.806241724e-06 2.870967353e-16 -7.68269455e-06)
(7.840741854e-06 2.827599266e-16 -7.682695094e-06)
(7.872537631e-06 2.792904796e-16 -7.682695595e-06)
(7.900406924e-06 2.758210327e-16 -7.682696034e-06)
(7.923278457e-06 2.732189475e-16 -7.682696394e-06)
(7.9402736e-06 2.706168623e-16 -7.682696662e-06)
(7.95073901e-06 2.694242399e-16 -7.682696826e-06)
(7.954272845e-06 2.689405649e-16 -7.682696882e-06)
(7.95073901e-06 2.694242399e-16 -7.682696826e-06)
(7.9402736e-06 2.706168623e-16 -7.682696662e-06)
(7.923278457e-06 2.732189475e-16 -7.682696394e-06)
(7.900406924e-06 2.758210327e-16 -7.682696034e-06)
(7.872537631e-06 2.792904796e-16 -7.682695595e-06)
(7.840741854e-06 2.827599266e-16 -7.682695094e-06)
(7.806241724e-06 2.870967353e-16 -7.68269455e-06)
(7.770362636e-06 2.91433544e-16 -7.682693985e-06)
(7.734483547e-06 2.957703527e-16 -7.68269342e-06)
(7.699983417e-06 3.001071613e-16 -7.682692877e-06)
(7.66818764e-06 3.035766083e-16 -7.682692376e-06)
(7.640318347e-06 3.070460552e-16 -7.682691937e-06)
(7.617446814e-06 3.096481405e-16 -7.682691576e-06)
(7.600451671e-06 3.113828639e-16 -7.682691309e-06)
(7.589986261e-06 3.127923268e-16 -7.682691144e-06)
(8.213414848e-06 2.057122738e-16 -9.832761447e-06)
(8.217345515e-06 2.053478915e-16 -9.832761525e-06)
(8.228986139e-06 2.040468489e-16 -9.832761755e-06)
(8.24788975e-06 2.016616041e-16 -9.832762129e-06)
(8.273329642e-06 1.990595189e-16 -9.832762632e-06)
(8.304328517e-06 1.955900719e-16 -9.832763244e-06)
(8.3396948e-06 1.92120625e-16 -9.832763943e-06)
(8.378069122e-06 1.882174971e-16 -9.832764702e-06)
(8.417977252e-06 1.838806885e-16 -9.832765491e-06)
(8.457885383e-06 1.795438798e-16 -9.83276628e-06)
(8.496259704e-06 1.747733902e-16 -9.832767038e-06)
(8.531625987e-06 1.713039433e-16 -9.832767737e-06)
(8.562624862e-06 1.678344963e-16 -9.83276835e-06)
(8.588064754e-06 1.652324111e-16 -9.832768853e-06)
(8.606968366e-06 1.632808472e-16 -9.832769226e-06)
(8.618608989e-06 1.619798046e-16 -9.832769457e-06)
(8.622539656e-06 1.614585562e-16 -9.832769534e-06)
(8.618608989e-06 1.619798046e-16 -9.832769457e-06)
(8.606968366e-06 1.632808472e-16 -9.832769226e-06)
(8.588064754e-06 1.652324111e-16 -9.832768853e-06)
(8.562624862e-06 1.678344963e-16 -9.83276835e-06)
(8.531625987e-06 1.713039433e-16 -9.832767737e-06)
(8.496259704e-06 1.747733902e-16 -9.832767038e-06)
(8.457885383e-06 1.795438798e-16 -9.83276628e-06)
(8.417977252e-06 1.838806885e-16 -9.832765491e-06)
(8.378069122e-06 1.882174971e-16 -9.832764702e-06)
(8.3396948e-06 1.92120625e-16 -9.832763943e-06)
(8.304328517e-06 1.955900719e-16 -9.832763244e-06)
(8.273329642e-06 1.990595189e-16 -9.832762632e-06)
(8.24788975e-06 2.016616041e-16 -9.832762129e-06)
(8.228986139e-06 2.040468489e-16 -9.832761755e-06)
(8.217345515e-06 2.053478915e-16 -9.832761525e-06)
(8.845277901e-06 8.923460593e-17 -1.218445709e-05)
(8.849511593e-06 8.879615793e-17 -1.218445719e-05)
(8.862049623e-06 8.760353554e-17 -1.218445748e-05)
(8.882410563e-06 8.543513119e-17 -1.218445794e-05)
(8.909811683e-06 8.283304598e-17 -1.218445856e-05)
(8.943200343e-06 7.936359903e-17 -1.218445932e-05)
(8.981293105e-06 7.589415207e-17 -1.218446019e-05)
(9.022625803e-06 7.112366252e-17 -1.218446113e-05)
(9.065610556e-06 6.678685383e-17 -1.218446211e-05)
(9.108595308e-06 6.245004514e-17 -1.218446309e-05)
(9.149928007e-06 5.854691731e-17 -1.218446403e-05)
(9.188020769e-06 5.507747036e-17 -1.21844649e-05)
(9.221409428e-06 5.160802341e-17 -1.218446566e-05)
(9.248810548e-06 4.90059382e-17 -1.218446628e-05)
(9.269171489e-06 4.683753385e-17 -1.218446675e-05)
(9.281709519e-06 4.542807103e-17 -1.218446703e-05)
(9.28594321e-06 4.498089962e-17 -1.218446713e-05)
(9.281709519e-06 4.542807103e-17 -1.218446703e-05)
(9.269171489e-06 4.683753385e-17 -1.218446675e-05)
(9.248810548e-06 4.90059382e-17 -1.218446628e-05)
(9.221409428e-06 5.160802341e-17 -1.218446566e-05)
(9.188020769e-06 5.507747036e-17 -1.21844649e-05)
(9.149928007e-06 5.854691731e-17 -1.218446403e-05)
(9.108595308e-06 6.245004514e-17 -1.218446309e-05)
(9.065610556e-06 6.678685383e-17 -1.218446211e-05)
(9.022625803e-06 7.112366252e-17 -1.218446113e-05)
(8.981293105e-06 7.589415207e-17 -1.218446019e-05)
(8.943200343e-06 7.936359903e-17 -1.218445932e-05)
(8.909811683e-06 8.283304598e-17 -1.218445856e-05)
(8.882410563e-06 8.543513119e-17 -1.218445794e-05)
(8.862049623e-06 8.760353554e-17 -1.218445748e-05)
(8.849511593e-06 8.879615793e-17 -1.218445719e-05)
(9.484279057e-06 -3.536929098e-17 -1.467139162e-05)
(9.488679068e-06 -3.577867169e-17 -1.467139173e-05)
(9.501709651e-06 -3.70797143e-17 -1.467139205e-05)
(9.522870465e-06 -3.946495908e-17 -1.467139257e-05)
(9.55134803e-06 -4.206704429e-17 -1.467139327e-05)
(9.586048354e-06 -4.553649124e-17 -1.467139412e-05)
(9.625637579e-06 -4.90059382e-17 -1.467139509e-05)
(9.668594021e-06 -5.377642776e-17 -1.467139615e-05)
(9.713267418e-06 -5.811323645e-17 -1.467139725e-05)
(9.757940814e-06 -6.245004514e-17 -1.467139835e-05)
(9.800897256e-06 -6.635317296e-17 -1.46713994e-05)
(9.840486482e-06 -6.982261991e-17 -1.467140038e-05)
(9.875186805e-06 -7.329206686e-17 -1.467140123e-05)
(9.90366437e-06 -7.589415207e-17 -1.467140193e-05)
(9.924825185e-06 -7.784571598e-17 -1.467140245e-05)
(9.937855768e-06 -7.914675859e-17 -1.467140277e-05)
(9.942255779e-06 -7.962286454e-17 -1.467140288e-05)
(9.937855768e-06 -7.914675859e-17 -1.467140277e-05)
(9.924825185e-06 -7.784571598e-17 -1.467140245e-05)
(9.90366437e-06 -7.589415207e-17 -1.467140193e-05)
(9.875186805e-06 -7.329206686e-17 -1.467140123e-05)
(9.840486482e-06 -6.982261991e-17 -1.467140038e-05)
(9.800897256e-06 -6.635317296e-17 -1.46713994e-05)
(9.757940814e-06 -6.245004514e-17 -1.467139835e-05)
(9.713267418e-06 -5.811323645e-17 -1.467139725e-05)
(9.668594021e-06 -5.377642776e-17 -1.467139615e-05)
(9.625637579e-06 -4.90059382e-17 -1.467139509e-05)
(9.586048354e-06 -4.553649124e-17 -1.467139412e-05)
(9.55134803e-06 -4.206704429e-17 -1.467139327e-05)
(9.522870465e-06 -3.946495908e-17 -1.467139257e-05)
(9.501709651e-06 -3.70797143e-17 -1.467139205e-05)
(9.488679068e-06 -3.577867169e-17 -1.467139173e-05)
(1.013297842e-05 -1.666302502e-16 -1.72006918e-05)
(1.013735899e-05 -1.670755548e-16 -1.720069191e-05)
(1.015033198e-05 -1.682681772e-16 -1.720069224e-05)
(1.017139928e-05 -1.708702624e-16 -1.720069276e-05)
(1.019975099e-05 -1.734723476e-16 -1.720069347e-05)
(1.023429797e-05 -1.769417945e-16 -1.720069433e-05)
(1.027371223e-05 -1.804112415e-16 -1.720069532e-05)
(1.031647884e-05 -1.847480502e-16 -1.720069638e-05)
(1.036095481e-05 -1.890848589e-16 -1.720069749e-05)
(1.040543078e-05 -1.934216676e-16 -1.72006986e-05)
(1.044819738e-05 -1.977584763e-16 -1.720069967e-05)
(1.048761165e-05 -2.012279232e-16 -1.720070066e-05)
(1.052215862e-05 -2.046973702e-16 -1.720070152e-05)
(1.055051033e-05 -2.072994554e-16 -1.720070223e-05)
(1.057157763e-05 -2.090341789e-16 -1.720070275e-05)
(1.058455062e-05 -2.104436417e-16 -1.720070308e-05)
(1.058893119e-05 -2.108837089e-16 -1.720070319e-05)
(1.058455062e-05 -2.104436417e-16 -1.720070308e-05)
(1.057157763e-05 -2.090341789e-16 -1.720070275e-05)
(1.055051033e-05 -2.072994554e-16 -1.720070223e-05)
(1.052215862e-05 -2.046973702e-16 -1.720070152e-05)
(1.048761165e-05 -2.012279232e-16 -1.720070066e-05)
(1.044819738e-05 -1.977584763e-16 -1.720069967e-05)
(1.040543078e-05 -1.934216676e-16 -1.72006986e-05)
(1.036095481e-05 -1.890848589e-16 -1.720069749e-05)
(1.031647884e-05 -1.847480502e-16 -1.720069638e-05)
(1.027371223e-05 -1.804112415e-16 -1.720069532e-05)
(1.023429797e-05 -1.769417945e-16 -1.720069433e-05)
(1.019975099e-05 -1.734723476e-16 -1.720069347e-05)
(1.017139928e-05 -1.708702624e-16 -1.720069276e-05)
(1.015033198e-05 -1.682681772e-16 -1.720069224e-05)
(1.013735899e-05 -1.670755548e-16 -1.720069191e-05)
(1.079423475e-05 -3.023583661e-16 -1.96495806e-05)
(1.079835535e-05 -3.028176668e-16 -1.96495807e-05)
(1.081055844e-05 -3.042271296e-16 -1.964958098e-05)
(1.083037547e-05 -3.061786935e-16 -1.964958145e-05)
(1.085704462e-05 -3.087807787e-16 -1.964958208e-05)
(1.088954135e-05 -3.122502257e-16 -1.964958285e-05)
(1.092661652e-05 -3.157196726e-16 -1.964958372e-05)
(1.096684508e-05 -3.200564813e-16 -1.964958467e-05)
(1.100868156e-05 -3.2439329e-16 -1.964958565e-05)
(1.105051804e-05 -3.287300987e-16 -1.964958664e-05)
(1.10907466e-05 -3.330669074e-16 -1.964958759e-05)
(1.112782177e-05 -3.365363543e-16 -1.964958846e-05)
(1.116031851e-05 -3.400058013e-16 -1.964958923e-05)
(1.118698765e-05 -3.426078865e-16 -1.964958986e-05)
(1.120680468e-05 -3.449931313e-16 -1.964959032e-05)
(1.121900777e-05 -3.461857537e-16 -1.964959061e-05)
(1.122312837e-05 -3.46611625e-16 -1.964959071e-05)
(1.121900777e-05 -3.461857537e-16 -1.964959061e-05)
(1.120680468e-05 -3.449931313e-16 -1.964959032e-05)
(1.118698765e-05 -3.426078865e-16 -1.964958986e-05)
(1.116031851e-05 -3.400058013e-16 -1.964958923e-05)
(1.112782177e-05 -3.365363543e-16 -1.964958846e-05)
(1.10907466e-05 -3.330669074e-16 -1.964958759e-05)
(1.105051804e-05 -3.287300987e-16 -1.964958664e-05)
(1.100868156e-05 -3.2439329e-16 -1.964958565e-05)
(1.096684508e-05 -3.200564813e-16 -1.964958467e-05)
(1.092661652e-05 -3.157196726e-16 -1.964958372e-05)
(1.088954135e-05 -3.122502257e-16 -1.964958285e-05)
(1.085704462e-05 -3.087807787e-16 -1.964958208e-05)
(1.083037547e-05 -3.061786935e-16 -1.964958145e-05)
(1.081055844e-05 -3.042271296e-16 -1.964958098e-05)