/*--------------------------------*- C++ -*----------------------------------*\
| =========                 |                                                 |
| \\      /  F ield         | OpenFOAM: The Open Source CFD Toolbox           |
|  \\    /   O peration     | Version:  2312                                  |
|   \\  /    A nd           | Website:  www.openfoam.com                      |
|    \\/     M anipulation  |                                                 |
\*---------------------------------------------------------------------------*/
FoamFile
{
    version     2.0;
    format      ascii;
    arch        "LSB;label=32;scalar=64";
    class       surfaceVectorField;
    location    "0.05/beam";
    object      Q;
}
// * * * * * * * * * * * * * * * * * * * * * * * * * * * * * * * * * * * * * //

dimensions      [1 1 -2 0 0 0 0];

oriented        oriented;

internalField   nonuniform List<vector> 
59
(
(0.002205376498 4.918156979e-18 2.646864119e-07)
(0.002205387236 4.929641384e-18 2.597188768e-07)
(0.002205405134 4.911707457e-18 2.505958571e-07)
(0.00220543019 4.814420897e-18 2.360820697e-07)
(0.002205462405 4.577814215e-18 2.145100826e-07)
(0.00220550178 4.138231319e-18 1.838448476e-07)
(0.002205548314 3.433203808e-18 1.417700632e-07)
(0.002205602008 2.403700885e-18 8.579843236e-08)
(0.002205662861 9.936758199e-19 1.340781103e-08)
(0.002205730873 -8.513417814e-19 -7.779512435e-08)
(0.002205806046 -3.186777265e-18 -1.898827792e-07)
(0.002205888379 -6.071482629e-18 -3.24386291e-07)
(0.002205977872 -9.56884098e-18 -4.820485908e-07)
(0.002206074525 -1.374551342e-17 -6.625544263e-07)
(0.002206178338 -1.866705041e-17 -8.642431581e-07)
(0.002206289313 -2.438996039e-17 -1.083812748e-06)
(0.00220640745 -3.095006168e-17 -1.316026231e-06)
(0.002206532748 -3.834728753e-17 -1.553435012e-06)
(0.002206665211 -4.65274245e-17 -1.786136391e-06)
(0.002206804838 -5.536153557e-17 -2.001585678e-06)
(0.00220695163 -6.462401187e-17 -2.184485848e-06)
(0.002207105589 -7.397047127e-17 -2.316779701e-06)
(0.002207266695 -8.291589585e-17 -2.377767863e-06)
(0.002207435001 -9.082154815e-17 -2.34439882e-06)
(0.002207610427 -9.687066456e-17 -2.191719365e-06)
(0.002207793044 -1.000738147e-16 -1.893441095e-06)
(0.002207982757 -9.925922904e-17 -1.423103789e-06)
(0.002208179633 -9.308900532e-17 -7.546286281e-07)
(0.002208383559 -8.008419191e-17 1.354868109e-07)
(0.002208594597 -5.865006936e-17 1.267835058e-06)
(0.002208812619 -2.715327249e-17 2.656734583e-06)
(0.002209037685 1.604751254e-17 4.310380371e-06)
(0.002209269658 7.245537791e-17 6.226328835e-06)
(0.002209508617 1.434065476e-16 8.39245536e-06)
(0.002209754437 2.298419295e-16 1.078152992e-05)
(0.002210007235 3.32292581e-16 1.335331594e-05)
(0.002210266927 4.505653105e-16 1.604875018e-05)
(0.002210533689 5.837586534e-16 1.879344685e-05)
(0.002210807483 7.298746504e-16 2.149227672e-05)
(0.002211088529 8.858845651e-16 2.403435305e-05)
(0.002211376786 1.047301431e-15 2.628903752e-05)
(0.002211672418 1.208313938e-15 2.811215541e-05)
(0.00221197522 1.361381322e-15 2.934456999e-05)
(0.002212285077 1.497446736e-15 2.981890069e-05)
(0.002212601325 1.605644518e-15 2.936173785e-05)
(0.002212923206 1.673586633e-15 2.779955402e-05)
(0.00221324919 1.687294436e-15 2.496533661e-05)
(0.002213577452 1.631520949e-15 2.070177263e-05)
(0.002213905207 1.490027204e-15 1.487256847e-05)
(0.002214229249 1.245855783e-15 7.360484717e-06)
(0.00221454537 8.820555964e-16 -1.917028033e-06)
(0.002214849005 3.817584419e-16 -1.301759509e-05)
(0.002215134805 -2.705920158e-16 -2.595495248e-05)
(0.002215397379 -1.089584564e-15 -4.071894854e-05)
(0.002215631046 -2.087132216e-15 -5.725461672e-05)
(0.002215830591 -3.273537741e-15 -7.54940886e-05)
(0.002215991151 -4.655436201e-15 -9.533502016e-05)
(0.002216108834 -6.237933725e-15 -0.0001166848497)
(0.002216180641 -8.022420437e-15 -0.0001394393267)
)
;

boundaryField
{
    left
    {
        type            calculated;
        value           uniform (-0.002205372926 -6.81179486e-12 -2.662638298e-07);
    }
    right
    {
        type            calculated;
        value           uniform (0.002216204795 -6.821030911e-12 -0.0001635381538);
    }
    beam
    {
        type            empty;
        value           nonuniform List<vector> 0();
    }
}


// ************************************************************************* //
