/*--------------------------------*- C++ -*----------------------------------*\
| =========                 |                                                 |
| \\      /  F ield         | OpenFOAM: The Open Source CFD Toolbox           |
|  \\    /   O peration     | Version:  2312                                  |
|   \\  /    A nd           | Website:  www.openfoam.com                      |
|    \\/     M anipulation  |                                                 |
\*---------------------------------------------------------------------------*/
FoamFile
{
    version     2.0;
    format      ascii;
    arch        "LSB;label=32;scalar=64";
    class       volVectorField;
    location    "0.05/beam";
    object      Theta;
}
// * * * * * * * * * * * * * * * * * * * * * * * * * * * * * * * * * * * * * //

dimensions      [0 0 0 0 0 0 0];

internalField   nonuniform List<vector> 
60
(
(-1.276774902e-16 -4.676351615e-05 -9.051113482e-16)
(-1.276727087e-16 -4.363674557e-05 -8.939471593e-16)
(-1.276716381e-16 -4.10494863e-05 -8.727119055e-16)
(-1.276716952e-16 -3.682152795e-05 -8.420252005e-16)
(-1.276739136e-16 -3.228469327e-05 -8.033340735e-16)
(-1.276781129e-16 -2.668946122e-05 -7.586023646e-16)
(-1.276840448e-16 -2.056130101e-05 -7.09378597e-16)
(-1.276915356e-16 -1.370343761e-05 -6.597360659e-16)
(-1.277000924e-16 -6.404925249e-06 -6.120122598e-16)
(-1.277093053e-16 1.26820371e-06 -5.719036642e-16)
(-1.277185736e-16 9.034157809e-06 -5.441047221e-16)
(-1.27727356e-16 1.664360337e-05 -5.348052158e-16)
(-1.277351984e-16 2.37179014e-05 -5.514120197e-16)
(-1.277419059e-16 2.983490049e-05 -6.022610169e-16)
(-1.277476952e-16 3.447002693e-05 -6.965586386e-16)
(-1.277533828e-16 3.702875369e-05 -8.439844921e-16)
(-1.277605417e-16 3.683063856e-05 -1.054143444e-15)
(-1.277716664e-16 3.313016533e-05 -1.336026209e-15)
(-1.277902262e-16 2.512495075e-05 -1.696993421e-15)
(-1.278206506e-16 1.198245911e-05 -2.141788303e-15)
(-1.278681521e-16 -7.131981909e-06 -2.671832888e-15)
(-1.279383235e-16 -3.301434714e-05 -3.28268177e-15)
(-1.280364927e-16 -6.637215225e-05 -3.965189575e-15)
(-1.281667525e-16 -0.0001077738824 -4.701670685e-15)
(-1.28330506e-16 -0.0001575709122 -5.468266653e-15)
(-1.285248663e-16 -0.0002158287746 -6.228504751e-15)
(-1.287408206e-16 -0.0002822426974 -6.943723355e-15)
(-1.289611148e-16 -0.0003560494809 -7.554157741e-15)
(-1.291591664e-16 -0.0004359365505 -8.012358391e-15)
(-1.292986888e-16 -0.0005199517745 -8.229204398e-15)
(-1.293669107e-16 -0.0006054176815 -8.112286512e-15)
(-1.292581975e-16 -0.0006888553679 -7.655256005e-15)
(-1.289634955e-16 -0.0007659228266 -6.766036935e-15)
(-1.284684855e-16 -0.0008313743437 -5.358023319e-15)
(-1.278051235e-16 -0.0008790464611 -3.391636868e-15)
(-1.270791504e-16 -0.0009018776567 -8.252593871e-16)
(-1.265014878e-16 -0.0008919673193 2.34507667e-15)
(-1.264171531e-16 -0.0008406804594 6.098565447e-15)
(-1.273224608e-16 -0.0007388027695 1.03709617e-14)
(-1.298570176e-16 -0.000576750009 1.505555113e-14)
(-1.347508613e-16 -0.0003448344883 1.999359178e-14)
(-1.42702813e-16 -3.3587887e-05 2.497396468e-14)
(-1.541657385e-16 0.0003658589681 2.972977139e-14)
(-1.690063396e-16 0.00086134782 3.394191316e-14)
(-1.860347701e-16 0.001459215795 3.724392586e-14)
(-2.023769969e-16 0.002163790636 3.923214226e-14)
(-2.127599937e-16 0.002976850502 3.948056876e-14)
(-2.087151011e-16 0.003897094398 3.756094527e-14)
(-1.779381978e-16 0.00491958559 3.306818558e-14)
(-1.03869015e-16 0.006035271267 2.565155745e-14)
(3.400228649e-17 0.007230449903 1.505089294e-14)
(2.590038816e-16 0.008486439653 1.137617246e-15)
(5.945449124e-16 0.009779061783 -1.604033656e-14)
(1.059831163e-15 0.01107860782 -3.621069547e-14)
(1.66327712e-15 0.01234918925 -5.882814244e-14)
(2.394423375e-15 0.01354930377 -8.30202903e-14)
(3.214496064e-15 0.01463053378 -1.075432736e-13)
(4.048367299e-15 0.0155394819 -1.307288754e-13)
(4.780790762e-15 0.01621434594 -1.50437098e-13)
(5.263241525e-15 0.0165904004 -1.64007144e-13)
)
;

boundaryField
{
    left
    {
        type            momentBeamRotationNR;
        value           uniform (-1.276774902e-16 -4.676351615e-05 -9.051113482e-16);
        momentSeries    
{
        file            "$FOAM_CASE/constant/beam/timeVsMoment";
        outOfBounds     clamp;
}
        moment          uniform (0 0 0);
    }
    right
    {
        type            momentBeamRotationNR;
        value           uniform (5.263241525e-15 0.0165904004 -1.64007144e-13);
        momentSeries    
{
        file            "$FOAM_CASE/constant/beam/timeVsMoment";
        outOfBounds     clamp;
}
        moment          uniform (0 0 0);
    }
    beam
    {
        type            empty;
    }
}


// ************************************************************************* //
