/*--------------------------------*- C++ -*----------------------------------*\
| =========                 |                                                 |
| \\      /  F ield         | OpenFOAM: The Open Source CFD Toolbox           |
|  \\    /   O peration     | Version:  2312                                  |
|   \\  /    A nd           | Website:  www.openfoam.com                      |
|    \\/     M anipulation  |                                                 |
\*---------------------------------------------------------------------------*/
FoamFile
{
    version     2.0;
    format      ascii;
    arch        "LSB;label=32;scalar=64";
    class       volVectorField;
    location    "0.05/beam";
    object      W;
}
// * * * * * * * * * * * * * * * * * * * * * * * * * * * * * * * * * * * * * //

dimensions      [0 1 0 0 0 0 0];

internalField   nonuniform List<vector> 
60
(
(3.23737747e-07 9.820632313e-16 8.74449379e-08)
(9.712165014e-07 9.457110436e-16 2.438280518e-07)
(1.618701474e-06 9.079128554e-16 3.447944565e-07)
(2.266194137e-06 8.676801501e-16 3.537764799e-07)
(2.913696511e-06 8.24020274e-16 2.349059061e-07)
(3.561209868e-06 7.759274044e-16 -4.644844601e-08)
(4.208735379e-06 7.224119728e-16 -5.229049903e-07)
(4.856273683e-06 6.625089087e-16 -1.223985913e-06)
(5.503825154e-06 5.953010233e-16 -2.174665336e-06)
(6.151389869e-06 5.199823338e-16 -3.393553885e-06)
(6.798967889e-06 4.358643641e-16 -4.890673013e-06)
(7.446559519e-06 3.424846093e-16 -6.664818299e-06)
(8.094165752e-06 2.39650225e-16 -8.700569672e-06)
(8.741788752e-06 1.275206049e-16 -1.096496131e-05)
(9.38943236e-06 6.694900626e-18 -1.340396291e-05)
(1.003710248e-05 -1.216870561e-16 -1.593883158e-05)
(1.068480713e-05 -2.558269029e-16 -1.84625634e-05)
(1.133255599e-05 -3.931430882e-16 -2.08366079e-05)
(1.198035889e-05 -5.30132775e-16 -2.288813251e-05)
(1.262822316e-05 -6.622251617e-16 -2.440811317e-05)
(1.327614924e-05 -7.836430086e-16 -2.515061431e-05)
(1.392412436e-05 -8.872639984e-16 -2.483360185e-05)
(1.457207765e-05 -9.645047077e-16 -2.314179787e-05)
(1.522001649e-05 -1.005289315e-15 -1.973162617e-05)
(1.586779591e-05 -9.979797966e-16 -1.423884258e-05)
(1.651525463e-05 -9.295093642e-16 -6.290772185e-06)
(1.716217039e-05 -7.855061553e-16 4.481079731e-06)
(1.780825828e-05 -5.506684227e-16 1.842030191e-05)
(1.845317719e-05 -2.091691131e-16 3.582596274e-05)
(1.909655102e-05 2.545971942e-16 5.692330835e-05)
(1.973800419e-05 8.564152914e-16 8.18367593e-05)
(2.037721865e-05 1.608677056e-15 0.0001105527449)
(2.101400542e-05 2.519150556e-15 0.0001428862602)
(2.164839307e-05 3.591565679e-15 0.0001784384411)
(2.228071411e-05 4.822713553e-15 0.0002165592755)
(2.291167893e-05 6.200194544e-15 0.0002563048481)
(2.354240234e-05 7.700248747e-15 0.0002964007046)
(2.417435175e-05 9.285183159e-15 0.0003352062013)
(2.480916992e-05 1.090093574e-14 0.0003706849013)
(2.544832047e-05 1.247452779e-14 0.0004003857408)
(2.609251339e-05 1.391170113e-14 0.0004214283298)
(2.674085683e-05 1.509495396e-14 0.0004305121384)
(2.738972507e-05 1.588178017e-14 0.0004239251886)
(2.803133654e-05 1.610405604e-14 0.0003975926463)
(2.865209094e-05 1.556759286e-14 0.000347116792)
(2.923079141e-05 1.405385393e-14 0.0002678747136)
(2.973685336e-05 1.13216591e-14 0.0001550952787)
(3.012886625e-05 7.112306818e-15 4.011963527e-06)
(3.035357835e-05 1.154345816e-15 -0.0001900209932)
(3.034601355e-05 -6.82687057e-15 -0.0004313201426)
(3.003055919e-05 -1.710049127e-14 -0.0007237197183)
(2.932412758e-05 -2.991536076e-14 -0.001070313641)
(2.814068801e-05 -4.548675778e-14 -0.001473271816)
(2.639861257e-05 -6.397593739e-14 -0.001933544909)
(2.402924549e-05 -8.547199404e-14 -0.002450658617)
(2.098827465e-05 -1.099658834e-13 -0.003022397477)
(1.726720005e-05 -1.373273841e-13 -0.003644584247)
(1.290621315e-05 -1.672744949e-13 -0.0043107586)
(8.004722064e-06 -1.993456966e-13 -0.005011941749)
(2.729918192e-06 -2.328657605e-13 -0.005736319584)
)
;

boundaryField
{
    left
    {
        type            fixedValue;
        value           uniform (0 0 0);
    }
    right
    {
        type            fixedValue;
        value           uniform (2.413626943e-08 -2.508914606e-13 -0.006102690411);
    }
    beam
    {
        type            empty;
    }
}


// ************************************************************************* //
