# Time	Qx	Qy	Qz	Mx	My	Mz	Wx	Wy	Wz
0	0	0	0	0	0	0	0	0	0
0.01	-2.82828	-1.63329	29.8217	-8.88353e-19	-1.61966e-19	-1.49415e-21	-0.204196	-0.145389	5.62216
0.02	-11.2366	-6.48096	58.581	-4.01846e-19	-1.35138e-20	-2.62301e-21	-0.812723	-0.578755	11.1813
0.03	-24.9992	-14.3888	85.2526	4.1092e-18	-5.2831e-19	3.98791e-19	-1.81357	-1.2918	16.6161
0.04	-43.751	-25.1076	108.883	-2.57515e-18	-2.85342e-19	9.5161e-20	-3.18725	-2.27109	21.8691
0.05	-67.004	-38.3044	128.62	2.39377e-18	1.77393e-19	1.05227e-18	-4.90758	-3.49855	26.8876
0.06	-94.1686	-53.5773	143.742	1.36427e-20	-5.57537e-20	1.29233e-23	-6.94268	-4.95221	31.6255
0.07	-124.578	-70.4718	153.669	-2.54148e-20	3.01306e-20	5.38863e-26	-9.25615	-6.60696	36.044
0.08	-157.513	-88.4992	157.979	-3.7447e-20	-1.82038e-21	2.08707e-23	-11.8083	-8.43552	40.1122
0.09	-192.233	-107.155	156.41	2.68928e-20	1.13165e-20	2.11437e-22	-14.5576	-10.4092	43.8076
0.1	-227.996	-125.936	148.855	9.53636e-20	-8.74089e-20	4.24314e-22	-17.4617	-12.499	47.1157
0.11	-264.085	-144.356	135.353	-3.79596e-21	8.64899e-21	6.77455e-22	-20.4788	-14.6762	50.03
0.12	-299.826	-161.959	116.075	-5.08073e-20	4.80409e-20	-1.64052e-21	-23.5685	-16.9129	52.5509
0.13	-334.606	-178.331	91.305	-1.10954e-20	5.37214e-21	1.54037e-21	-26.6927	-19.1833	54.6855
0.14	-367.882	-193.107	61.4211	2.8676e-20	-3.33884e-20	4.4534e-23	-29.8164	-21.4632	56.4464
0.15	-399.19	-205.974	26.8736	2.13824e-20	-4.76903e-20	-1.31821e-21	-32.908	-23.7312	57.8507
0.16	-428.148	-216.677	-11.835	1.65732e-20	-1.85548e-20	6.37391e-22	-35.9396	-25.9681	58.9192
0.17	-454.459	-225.017	-54.1706	6.73211e-20	-4.72731e-20	-3.74659e-21	-38.8873	-28.1578	59.6753
0.18	-477.903	-230.849	-99.5842	-6.91353e-21	3.62795e-21	5.65506e-21	-41.7309	-30.2866	60.1441
0.19	-498.34	-234.078	-147.528	1.24076e-20	1.36641e-20	-8.34428e-21	-44.4541	-32.3435	60.3519
0.2	-515.696	-234.657	-197.469	-5.98813e-21	-5.70317e-21	-2.14401e-22	-47.0442	-34.3197	60.325
0.21	-529.959	-232.579	-248.898	-1.10021e-20	6.70816e-21	-1.16104e-20	-49.4915	-36.209	60.0896
0.22	-541.174	-227.873	-301.338	-2.75584e-21	5.21544e-23	1.05026e-21	-51.7895	-38.007	59.6711
0.23	-549.43	-220.596	-354.351	2.46821e-20	3.30323e-21	8.57237e-21	-53.9342	-39.711	59.0938
0.24	-554.852	-210.832	-407.54	1.23852e-20	2.0221e-20	1.17527e-20	-55.924	-41.32	58.3805
0.25	-557.599	-198.682	-460.553	7.62735e-21	1.12661e-20	7.74307e-21	-57.759	-42.8342	57.5526
0.26	-557.849	-184.261	-513.081	-4.71942e-22	-2.98691e-20	9.01734e-21	-59.4412	-44.2549	56.6297
0.27	-555.802	-167.696	-564.856	2.79395e-22	1.82201e-20	-1.87698e-21	-60.9738	-45.5843	55.6294
0.28	-551.664	-149.119	-615.655	-2.78767e-22	-4.84009e-21	1.22657e-20	-62.3609	-46.8253	54.5681
0.29	-545.65	-128.662	-665.291	-5.13855e-22	2.5221e-21	-2.64148e-21	-63.6075	-47.9812	53.4599
0.3	-537.979	-106.463	-713.614	-3.2741e-21	1.64725e-20	1.00074e-20	-64.7194	-49.0557	52.3176
0.31	-528.866	-82.6529	-760.506	7.88683e-21	-3.09548e-20	-1.143e-20	-65.7025	-50.0529	51.1524
0.32	-518.525	-57.3617	-805.879	-7.09283e-21	1.33718e-20	-1.10414e-20	-66.5631	-50.9769	49.9739
0.33	-507.163	-30.7139	-849.672	-6.35925e-21	6.07908e-21	2.76963e-21	-67.3077	-51.8318	48.7904
0.34	-494.979	-2.82778	-891.845	-5.15539e-21	2.31137e-20	3.01299e-21	-67.9426	-52.6218	47.6091
0.35	-482.167	26.1846	-932.378	-5.73544e-21	-5.63179e-22	4.10834e-21	-68.4742	-53.351	46.4359
0.36	-468.908	56.218	-971.27	-3.79593e-21	2.47734e-20	-5.72008e-22	-68.9088	-54.0233	45.2758
0.37	-455.375	87.1746	-1008.53	-2.01359e-20	1.29504e-20	4.7524e-22	-69.2523	-54.6425	44.1328
0.38	-441.732	118.963	-1044.18	-2.59682e-20	-6.2109e-22	1.3195e-21	-69.5105	-55.2122	43.0102
0.39	-428.132	151.5	-1078.26	7.14838e-21	-5.44281e-21	-5.78898e-23	-69.6891	-55.7358	41.9104
0.4	-414.719	184.707	-1110.81	-1.77366e-20	1.27565e-20	8.23296e-22	-69.7932	-56.2166	40.8356
0.41	-401.627	218.514	-1141.86	-5.12583e-21	-1.4352e-21	-5.70856e-21	-69.828	-56.6574	39.7869
0.42	-388.983	252.855	-1171.48	-1.92094e-20	-5.07859e-22	-1.33269e-21	-69.7981	-57.0611	38.7654
0.43	-376.903	287.67	-1199.7	3.37425e-20	-4.65366e-21	9.136e-22	-69.7079	-57.4301	37.7716
0.44	-365.496	322.905	-1226.6	-1.93809e-20	-1.11342e-21	9.64453e-21	-69.5616	-57.7669	36.8056
0.45	-354.863	358.508	-1252.22	-6.55903e-22	8.22196e-23	-1.85704e-21	-69.363	-58.0736	35.8673
0.46	-345.1	394.434	-1276.61	-1.59839e-20	-1.18332e-23	-2.59331e-21	-69.1159	-58.352	34.9563
0.47	-336.294	430.64	-1299.83	-1.06648e-20	3.91334e-23	2.32525e-21	-68.8236	-58.6039	34.0721
0.48	-328.528	467.086	-1321.93	-3.73251e-21	9.37204e-23	-1.41079e-21	-68.4893	-58.8309	33.2139
0.49	-321.877	503.735	-1342.96	-1.72567e-20	-1.5341e-21	-1.03632e-20	-68.1158	-59.0344	32.3809
0.5	-316.412	540.552	-1362.97	2.17233e-20	2.28287e-22	1.19089e-20	-67.706	-59.2157	31.572
0.51	-312.201	577.504	-1382	-1.12549e-20	-1.57603e-21	-5.44255e-21	-67.2624	-59.3757	30.7862
0.52	-309.304	614.559	-1400.09	-6.26343e-19	-1.31431e-19	8.44631e-19	-66.7873	-59.5156	30.0224
0.53	-307.781	651.686	-1417.28	-8.36014e-19	1.56981e-19	-3.51362e-19	-66.2829	-59.636	29.2793
0.54	-307.684	688.856	-1433.6	-7.5353e-19	-5.9312e-20	-1.51715e-19	-65.7514	-59.7378	28.5557
0.55	-309.064	726.038	-1449.09	-8.13897e-19	-9.42787e-20	7.77688e-19	-65.1946	-59.8215	27.8504
0.56	-311.97	763.204	-1463.76	1.06913e-18	1.24176e-19	6.47349e-19	-64.6145	-59.8876	27.162
0.57	-316.444	800.323	-1477.65	3.13172e-19	-1.68142e-20	-4.6304e-19	-64.0125	-59.9366	26.4895
0.58	-322.528	837.365	-1490.77	-4.36408e-19	-6.1162e-20	-5.07469e-19	-63.3905	-59.9688	25.8314
0.59	-330.26	874.301	-1503.14	-8.25653e-19	-1.15261e-19	1.77998e-19	-62.7499	-59.9844	25.1865
0.6	-339.676	911.098	-1514.77	-6.24569e-19	-1.2766e-19	4.67161e-19	-62.0921	-59.9837	24.5537
0.61	-350.81	947.724	-1525.66	1.23816e-18	1.16545e-20	3.95601e-19	-61.4184	-59.9667	23.9316
0.62	-363.69	984.146	-1535.83	1.56285e-18	1.95223e-19	3.64242e-19	-60.7303	-59.9336	23.3192
0.63	-378.345	1020.33	-1545.28	1.46858e-18	4.29587e-20	-5.16632e-19	-60.029	-59.8844	22.7153
0.64	-394.799	1056.23	-1554	1.09955e-18	-3.92612e-20	-1.1064e-20	-59.3156	-59.8191	22.1187
0.65	-413.077	1091.83	-1561.98	9.15776e-20	1.09892e-19	3.76488e-20	-58.5914	-59.7376	21.5284
0.66	-433.196	1127.07	-1569.22	-5.77871e-19	-1.09044e-19	-4.25152e-19	-57.8575	-59.6398	20.9434
0.67	-455.175	1161.92	-1575.71	-5.26116e-19	-6.17864e-20	8.59096e-20	-57.1149	-59.5256	20.3625
0.68	-479.028	1196.33	-1581.43	-1.415e-19	-5.4895e-20	-4.94793e-20	-56.3648	-59.3949	19.785
0.69	-504.767	1230.26	-1586.37	1.74526e-19	9.49466e-20	-3.75443e-20	-55.6083	-59.2476	19.2097
0.7	-532.399	1263.67	-1590.5	-6.77611e-20	1.10685e-19	6.55479e-20	-54.8464	-59.0835	18.6359
0.71	-561.93	1296.5	-1593.8	3.62032e-19	2.63692e-20	4.28515e-19	-54.08	-58.9024	18.0627
0.72	-593.363	1328.72	-1596.26	-1.78731e-19	-2.57753e-20	-3.47249e-19	-53.3104	-58.7042	17.4893
0.73	-626.697	1360.26	-1597.83	2.33136e-18	1.75115e-20	5.43731e-19	-52.5385	-58.4886	16.915
0.74	-661.928	1391.07	-1598.49	1.20957e-19	2.52376e-20	7.73531e-20	-51.7653	-58.2555	16.3389
0.75	-699.047	1421.1	-1598.22	-5.44267e-19	-1.98765e-21	-2.14167e-19	-50.9918	-58.0047	15.7606
0.76	-738.044	1450.31	-1596.97	-6.67987e-19	1.05935e-21	8.76195e-20	-50.2191	-57.7361	15.1792
0.77	-778.902	1478.62	-1594.71	4.62944e-19	1.74022e-21	-2.22738e-19	-49.4482	-57.4495	14.5943
0.78	-821.603	1505.98	-1591.41	-4.12548e-19	2.02358e-20	-6.84273e-20	-48.6802	-57.1447	14.0053
0.79	-866.124	1532.34	-1587.03	-6.77257e-19	-3.60763e-20	4.27252e-20	-47.916	-56.8217	13.4117
0.8	-912.438	1557.63	-1581.54	-9.03512e-19	-1.13882e-20	-2.07742e-19	-47.1567	-56.4804	12.813
0.81	-960.512	1581.79	-1574.88	6.71232e-19	-9.63374e-20	1.37855e-19	-46.4033	-56.1206	12.2089
0.82	-1010.31	1604.77	-1567.03	1.65389e-19	1.58203e-19	-3.89106e-20	-45.6569	-55.7423	11.599
0.83	-1061.8	1626.5	-1557.94	1.50691e-19	3.53799e-20	1.44057e-20	-44.9185	-55.3455	10.9831
0.84	-1114.92	1646.92	-1547.58	5.63103e-19	-2.49627e-20	3.80977e-20	-44.1891	-54.9301	10.3607
0.85	-1169.64	1665.97	-1535.9	-7.52349e-19	1.66362e-19	-1.99092e-19	-43.4699	-54.4963	9.73173
0.86	-1225.9	1683.59	-1522.86	5.35647e-20	1.30587e-20	1.96077e-19	-42.7618	-54.044	9.09601
0.87	-1283.63	1699.72	-1508.43	-4.40766e-19	-1.45338e-19	-5.96047e-21	-42.0658	-53.5734	8.45339
0.88	-1342.79	1714.29	-1492.56	2.87212e-19	-1.75026e-19	1.92617e-19	-41.383	-53.0846	7.80379
0.89	-1403.29	1727.25	-1475.22	-3.92696e-19	2.20326e-19	3.56948e-20	-40.7144	-52.5777	7.14716
0.9	-1465.07	1738.55	-1456.37	-6.27953e-19	1.49885e-19	-1.41249e-20	-40.0611	-52.053	6.48353
0.91	-1528.06	1748.12	-1435.97	-1.78595e-19	8.52725e-20	2.05768e-19	-39.4239	-51.5107	5.81292
0.92	-1592.16	1755.91	-1414	9.68785e-19	-9.71965e-20	7.41909e-21	-38.804	-50.9511	5.13544
0.93	-1657.31	1761.87	-1390.42	2.69991e-19	2.19006e-19	2.23646e-20	-38.2022	-50.3744	4.45122
0.94	-1723.4	1765.94	-1365.19	-4.95125e-19	2.0352e-19	-1.54396e-20	-37.6196	-49.7812	3.76044
0.95	-1790.35	1768.09	-1338.29	-7.3632e-19	3.92449e-19	-2.23731e-19	-37.0569	-49.1716	3.0633
0.96	-1858.05	1768.25	-1309.7	2.3827e-18	-3.06117e-19	9.84356e-20	-36.5153	-48.5462	2.36008
0.97	-1926.42	1766.4	-1279.39	2.67904e-19	5.61418e-19	8.3549e-20	-35.9954	-47.9055	1.65107
0.98	-1995.34	1762.48	-1247.34	-7.28921e-19	1.52461e-19	-7.78589e-20	-35.4981	-47.2499	0.936588
0.99	-2064.71	1756.47	-1213.54	-3.02905e-20	-3.84788e-19	-6.38817e-20	-35.0243	-46.5801	0.217015
1	-2134.41	1748.33	-1177.96	9.46339e-20	-2.8952e-19	-4.18617e-20	-34.5747	-45.8965	-0.507249
