/*--------------------------------*- C++ -*----------------------------------*\
| =========                 |                                                 |
| \\      /  F ield         | OpenFOAM: The Open Source CFD Toolbox           |
|  \\    /   O peration     | Version:  2312                                  |
|   \\  /    A nd           | Website:  www.openfoam.com                      |
|    \\/     M anipulation  |                                                 |
\*---------------------------------------------------------------------------*/
FoamFile
{
    version     2.0;
    format      ascii;
    arch        "LSB;label=32;scalar=64";
    class       volScalarField;
    location    "0.09";
    object      p;
}
// * * * * * * * * * * * * * * * * * * * * * * * * * * * * * * * * * * * * * //

dimensions      [1 -1 -2 0 0 0 0];

internalField   nonuniform List<scalar> 
299556
(
19.37475289
19.37475869
19.37476453
19.37477042
19.3747764
19.37478249
19.3747887
19.37479508
19.37480163
19.37480838
19.37481536
19.37482259
19.37483009
19.37483789
19.37484601
19.37485447
19.3748633
19.37487251
19.37488212
19.37489216
19.37490264
19.37491357
19.37492498
19.37493687
19.37494926
19.37496214
19.37497553
19.37498942
19.37500381
19.3750187
19.37503405
19.37504987
19.37506612
19.37508278
19.3750998
19.37511714
19.37513476
19.37515259
19.37517057
19.37518863
19.37520668
19.37522465
19.37524243
19.37525993
19.37527705
19.37529367
19.37530968
19.37532497
19.37533941
19.37535291
19.37536533
19.37537657
19.37538652
19.37539508
19.37540216
19.37540767
19.37541154
19.37541372
19.37541414
19.37541278
19.37540961
19.37540462
19.37539782
19.37538923
19.37537888
19.37536681
19.37535309
19.37533776
19.37532091
19.37530262
19.37528298
19.37526206
19.37523997
19.37521681
19.37519265
19.3751676
19.37514175
19.37511517
19.37508796
19.37506019
19.37503194
19.37500326
19.37497423
19.37494489
19.37491531
19.37488552
19.37485557
19.3748255
19.37479534
19.37476512
19.37475863
19.37477596
19.3747934
19.37481101
19.37482888
19.37484706
19.37486564
19.37488467
19.37490425
19.37492442
19.37494528
19.37496688
19.3749893
19.3750126
19.37503686
19.37506214
19.37508851
19.37511603
19.37514475
19.37517475
19.37520606
19.37523874
19.37527283
19.37530836
19.37534537
19.37538387
19.37542388
19.3754654
19.3755084
19.37555287
19.37559877
19.37564604
19.37569461
19.37574439
19.37579526
19.3758471
19.37589975
19.37595305
19.37600679
19.37606077
19.37611474
19.37616844
19.3762216
19.37627392
19.37632509
19.37637478
19.37642265
19.37646836
19.37651155
19.3765519
19.37658904
19.37662265
19.3766524
19.37667801
19.37669918
19.37671566
19.37672725
19.37673376
19.37673504
19.37673097
19.37672149
19.37670658
19.37668626
19.37666058
19.37662964
19.37659357
19.37655253
19.37650672
19.37645635
19.37640167
19.37634294
19.37628042
19.3762144
19.37614514
19.37607294
19.37599806
19.37592078
19.37584135
19.37576002
19.37567703
19.37559258
19.37550687
19.3754201
19.37533243
19.37524401
19.37515498
19.37506547
19.3749756
19.37488548
19.37479519
19.37476432
19.37479307
19.374822
19.37485123
19.37488087
19.37491104
19.37494186
19.37497345
19.37500592
19.3750394
19.375074
19.37510984
19.37514704
19.37518571
19.37522596
19.37526791
19.37531166
19.37535732
19.37540498
19.37545475
19.3755067
19.37556093
19.37561749
19.37567646
19.37573787
19.37580176
19.37586816
19.37593704
19.37600841
19.37608221
19.37615839
19.37623683
19.37631744
19.37640005
19.37648448
19.37657052
19.37665792
19.37674638
19.37683559
19.37692519
19.37701477
19.37710393
19.37719218
19.37727903
19.37736398
19.37744647
19.37752595
19.37760184
19.37767357
19.37774056
19.37780223
19.37785804
19.37790746
19.37794998
19.37798514
19.37801253
19.37803178
19.37804259
19.37804472
19.37803798
19.37802225
19.37799751
19.37796378
19.37792115
19.37786978
19.3778099
19.37774177
19.37766571
19.3775821
19.37749133
19.37739383
19.37729005
19.37718044
19.37706548
19.37694563
19.37682134
19.37669306
19.37656123
19.37642624
19.37628848
19.37614832
19.37600608
19.37586206
19.37571656
19.37556982
19.37542207
19.37527353
19.37512438
19.37497482
19.374825
19.37476992
19.37480992
19.37485017
19.37489082
19.37493206
19.37497403
19.3750169
19.37506085
19.37510602
19.3751526
19.37520074
19.3752506
19.37530235
19.37535614
19.37541214
19.3754705
19.37553136
19.37559489
19.3756612
19.37573044
19.37580273
19.37587817
19.37595687
19.37603891
19.37612436
19.37621326
19.37630564
19.3764015
19.37650081
19.37660351
19.37670951
19.37681868
19.37693085
19.37704582
19.37716333
19.37728308
19.37740472
19.37752785
19.37765202
19.37777674
19.37790145
19.37802556
19.37814842
19.37826934
19.37838761
19.37850247
19.37861314
19.37871882
19.3788187
19.37891199
19.37899789
19.37907562
19.37914445
19.37920367
19.37925266
19.37929082
19.37931765
19.37933272
19.37933571
19.37932634
19.37930446
19.37927002
19.37922306
19.37916372
19.37909221
19.37900884
19.37891398
19.3788081
19.3786917
19.37856533
19.37842959
19.37828511
19.37813253
19.3779725
19.37780566
19.37763265
19.3774541
19.3772706
19.37708272
19.37689099
19.37669591
19.37649795
19.37629753
19.37609503
19.37589082
19.37568521
19.3754785
19.37527096
19.37506283
19.37485436
19.3747754
19.3748264
19.37487771
19.37492955
19.37498212
19.37503564
19.3750903
19.37514633
19.37520394
19.37526332
19.3753247
19.37538828
19.37545426
19.37552285
19.37559426
19.37566867
19.37574628
19.37582728
19.37591184
19.37600014
19.37609232
19.37618853
19.37628889
19.37639352
19.37650249
19.37661587
19.37673369
19.37685594
19.3769826
19.37711359
19.3772488
19.37738805
19.37753114
19.3776778
19.37782771
19.37798048
19.37813567
19.37829278
19.37845122
19.37861036
19.3787695
19.37892788
19.37908467
19.37923901
19.37938996
19.37953657
19.37967784
19.37981275
19.37994027
19.38005937
19.38016905
19.38026831
19.3803562
19.38043184
19.38049441
19.38054316
19.38057744
19.38059672
19.38060057
19.38058863
19.38056073
19.38051679
19.38045688
19.38038115
19.38028988
19.38018348
19.38006242
19.37992728
19.37977872
19.37961744
19.37944422
19.37925984
19.37906512
19.37886091
19.37864802
19.37842726
19.37819944
19.37796532
19.37772561
19.377481
19.37723213
19.37697959
19.37672392
19.37646562
19.37620513
19.37594286
19.3756792
19.37541447
19.37514901
19.3748831
19.37478072
19.37484241
19.37490448
19.37496718
19.37503076
19.37509549
19.37516162
19.37522939
19.37529906
19.37537089
19.37544514
19.37552204
19.37560185
19.37568482
19.3757712
19.37586121
19.3759551
19.37605308
19.37615538
19.37626219
19.3763737
19.3764901
19.37661152
19.3767381
19.37686994
19.37700712
19.37714967
19.3772976
19.37745086
19.37760937
19.37777298
19.3779415
19.37811467
19.37829217
19.37847361
19.37865853
19.37884638
19.37903656
19.37922837
19.37942104
19.37961372
19.37980549
19.37999535
19.38018225
19.38036507
19.38054264
19.38071374
19.38087716
19.38103164
19.38117594
19.38130882
19.38142909
19.3815356
19.38162727
19.38170311
19.38176221
19.38180379
19.38182719
19.3818319
19.38181749
19.38178373
19.38173055
19.38165801
19.38156631
19.3814558
19.38132695
19.38118035
19.3810167
19.3808368
19.38064151
19.38043175
19.38020849
19.37997274
19.37972548
19.37946773
19.37920048
19.37892469
19.37864127
19.37835111
19.37805503
19.37775381
19.37744815
19.37713872
19.37682611
19.37651086
19.37619348
19.37587441
19.37555406
19.37523283
19.37491106
19.37478585
19.37485785
19.37493029
19.37500346
19.37507768
19.37515322
19.3752304
19.37530949
19.37539081
19.37547465
19.3755613
19.37565106
19.37574421
19.37584106
19.37594187
19.37604694
19.37615653
19.3762709
19.3763903
19.37651498
19.37664516
19.37678103
19.37692278
19.37707055
19.37722447
19.37738462
19.37755106
19.37772377
19.37790272
19.37808781
19.37827886
19.37847566
19.37867789
19.3788852
19.37909711
19.3793131
19.37953253
19.3797547
19.37997878
19.38020388
19.38042901
19.3806531
19.38087497
19.3810934
19.38130706
19.38151461
19.38171463
19.38190568
19.38208629
19.382255
19.38241039
19.38255104
19.38267561
19.38278284
19.38287157
19.38294073
19.3829894
19.38301682
19.3830224
19.3830056
19.3829662
19.38290408
19.38281933
19.38271218
19.38258303
19.38243245
19.38226113
19.38206988
19.38185964
19.38163142
19.3813863
19.38112542
19.38084994
19.38056105
19.3802599
19.37994767
19.37962548
19.3792944
19.37895546
19.37860962
19.37825779
19.3779008
19.37753942
19.37717433
19.37680619
19.37643555
19.37606296
19.37568889
19.37531378
19.37493807
19.37479076
19.37487263
19.37495499
19.37503819
19.37512258
19.37520847
19.37529622
19.37538616
19.37547862
19.37557395
19.37567248
19.37577454
19.37588047
19.37599059
19.37610523
19.3762247
19.37634932
19.37647939
19.37661518
19.37675697
19.37690501
19.37705954
19.37722075
19.37738882
19.37756389
19.37774605
19.37793537
19.37813184
19.37833541
19.37854597
19.37876333
19.37898724
19.37921735
19.37945323
19.37969438
19.37994018
19.38018992
19.38044278
19.38069785
19.38095409
19.38121039
19.38146552
19.38171815
19.38196687
19.3822102
19.38244658
19.38267441
19.38289203
19.38309778
19.38329
19.38346705
19.38362733
19.38376931
19.38389153
19.38399268
19.38407155
19.38412708
19.3841584
19.38416482
19.38414577
19.38410095
19.38403026
19.38393378
19.38381179
19.38366474
19.38349327
19.38329819
19.38308042
19.38284102
19.38258116
19.38230207
19.38200504
19.38169141
19.38136252
19.38101971
19.3806643
19.38029756
19.37992073
19.37953498
19.3791414
19.37874102
19.37833479
19.37792358
19.37750817
19.3770893
19.37666762
19.37624371
19.37581813
19.37539139
19.37496395
19.37479543
19.37488665
19.37497843
19.37507115
19.37516518
19.3752609
19.37535869
19.37545891
19.37556195
19.37566819
19.37577799
19.37589173
19.37600977
19.3761325
19.37626026
19.37639342
19.3765323
19.37667726
19.37682861
19.37698665
19.37715166
19.3773239
19.3775036
19.37769095
19.37788611
19.37808918
19.37830024
19.37851929
19.37874626
19.37898103
19.3792234
19.37947308
19.3797297
19.37999277
19.38026173
19.3805359
19.38081448
19.38109657
19.38138113
19.38166704
19.38195303
19.38223773
19.38251967
19.38279728
19.38306889
19.38333277
19.38358712
19.3838301
19.38405985
19.38427452
19.38447226
19.3846513
19.3848099
19.38494647
19.38505951
19.38514767
19.38520977
19.38524484
19.3852521
19.38523091
19.38518096
19.38510211
19.38499446
19.38485832
19.38469421
19.38450284
19.3842851
19.38404205
19.38377486
19.38348484
19.38317338
19.38284191
19.38249193
19.38212494
19.38174244
19.38134591
19.38093676
19.38051639
19.38008608
19.37964707
19.3792005
19.37874743
19.37828882
19.37782556
19.37735845
19.37688822
19.37641554
19.37594099
19.37546516
19.37498856
19.37479981
19.37489983
19.37500046
19.37510213
19.37520523
19.37531019
19.3754174
19.3755273
19.37564028
19.37575677
19.37587717
19.37600189
19.37613134
19.37626591
19.37640601
19.37655203
19.37670434
19.3768633
19.37702928
19.3772026
19.37738357
19.37757248
19.37776957
19.37797507
19.37818913
19.37841189
19.37864341
19.37888371
19.37913271
19.37939029
19.37965621
19.37993017
19.38021176
19.38050045
19.38079563
19.38109654
19.38140231
19.38171196
19.38202436
19.38233825
19.38265226
19.38296488
19.3832745
19.38357939
19.38387773
19.38416759
19.38444702
19.38471398
19.38496644
19.38520234
19.38541967
19.38561646
19.38579082
19.38594097
19.38606527
19.38616225
19.3862306
19.38626924
19.38627733
19.38625415
19.38619936
19.38611282
19.38599463
19.38584513
19.38566491
19.38545474
19.38521561
19.38494868
19.38465524
19.38433674
19.3839947
19.38363072
19.38324643
19.38284348
19.38242353
19.3819882
19.38153905
19.38107761
19.38060529
19.38012345
19.37963334
19.37913612
19.37863285
19.3781245
19.37761195
19.377096
19.37657736
19.3760567
19.37553463
19.37501173
19.37480388
19.37491209
19.37502096
19.37513094
19.37524248
19.37535602
19.37547201
19.3755909
19.37571314
19.37583916
19.37596942
19.37610435
19.3762444
19.37639
19.37654158
19.37669956
19.37686436
19.37703636
19.37721595
19.37740349
19.37759932
19.37780374
19.37801702
19.3782394
19.37847107
19.37871216
19.37896274
19.37922283
19.37949235
19.37977117
19.38005905
19.38035564
19.3806605
19.38097309
19.38129271
19.38161856
19.38194971
19.38228507
19.38262344
19.38296346
19.38330364
19.38364235
19.38397783
19.38430822
19.38463154
19.3849457
19.38524859
19.38553799
19.38581169
19.38606747
19.38630314
19.38651656
19.38670569
19.38686858
19.38700345
19.38710871
19.38718293
19.38722493
19.38723382
19.38720881
19.38714952
19.3870558
19.38692777
19.3867658
19.38657052
19.38634278
19.38608366
19.38579441
19.38547645
19.38513134
19.38476073
19.38436637
19.38395003
19.38351351
19.38305859
19.38258704
19.38210056
19.38160078
19.38108927
19.38056748
19.38003676
19.37949837
19.37895347
19.37840308
19.37784818
19.3772896
19.37672814
19.37616451
19.37559936
19.37503332
19.37480763
19.37492335
19.37503978
19.3751574
19.37527669
19.37539812
19.37552218
19.37564933
19.37578006
19.37591484
19.37605416
19.37619847
19.37634826
19.37650399
19.37666612
19.3768351
19.37701137
19.37719535
19.37738746
19.37758807
19.37779755
19.37801623
19.3782444
19.37848231
19.37873016
19.3789881
19.37925622
19.37953451
19.37982293
19.3801213
19.38042937
19.38074679
19.38107309
19.38140767
19.38174981
19.38209864
19.38245317
19.38281224
19.38317456
19.38353867
19.38390298
19.38426576
19.38462511
19.38497903
19.38532541
19.38566202
19.38598658
19.38629672
19.38659006
19.38686423
19.38711686
19.38734567
19.38754846
19.38772315
19.38786782
19.38798075
19.38806042
19.38810556
19.38811521
19.38808852
19.38802509
19.38792476
19.38778766
19.38761418
19.38740501
19.38716105
19.38688347
19.38657362
19.38623302
19.38586335
19.38546639
19.385044
19.38459809
19.3841306
19.38364344
19.38313849
19.38261759
19.3820825
19.38153486
19.38097626
19.38040814
19.37983183
19.37924858
19.3786595
19.3780656
19.37746779
19.37686692
19.37626373
19.37565893
19.37505319
19.37481101
19.37493354
19.37505682
19.37518136
19.37530766
19.37543623
19.37556758
19.37570222
19.37584064
19.37598335
19.37613086
19.37628367
19.37644228
19.37660718
19.37677886
19.3769578
19.37714446
19.37733929
19.37754273
19.37775518
19.37797703
19.37820863
19.37845028
19.37870226
19.37896478
19.379238
19.379522
19.37981681
19.38012234
19.38043843
19.38076483
19.38110115
19.38144689
19.38180143
19.382164
19.3825337
19.38290945
19.38329005
19.38367412
19.38406012
19.38444637
19.38483102
19.38521207
19.3855874
19.38595476
19.3863118
19.38665608
19.3869851
19.38729633
19.38758725
19.38785534
19.38809818
19.38831343
19.38849888
19.38865249
19.38877243
19.38885709
19.38890511
19.38891547
19.38888728
19.3888201
19.38871377
19.38856842
19.38838448
19.38816267
19.38790397
19.38760961
19.38728102
19.38691983
19.38652783
19.3861069
19.38565903
19.38518625
19.38469061
19.38417415
19.38363886
19.3830867
19.38251953
19.3819391
19.38134708
19.380745
19.38013429
19.37951625
19.37889205
19.37826278
19.37762939
19.37699276
19.37635371
19.37571296
19.37507121
19.37481403
19.3749426
19.37507196
19.37520265
19.37533519
19.37547012
19.37560795
19.37574923
19.37589449
19.37604426
19.37619906
19.37635942
19.37652587
19.37669893
19.3768791
19.3770669
19.37726279
19.37746728
19.37768079
19.37790378
19.37813663
19.37837972
19.37863338
19.37889788
19.37917345
19.37946027
19.37975841
19.38006791
19.38038868
19.38072057
19.38106328
19.38141643
19.3817795
19.38215182
19.38253261
19.3829209
19.38331558
19.38371538
19.38411885
19.38452438
19.38493021
19.38533438
19.38573481
19.38612926
19.38651536
19.38689065
19.38725256
19.38759845
19.38792568
19.38823158
19.38851351
19.3887689
19.38899531
19.38919039
19.38935202
19.38947825
19.38956738
19.389618
19.38962902
19.38959949
19.38952898
19.3894173
19.38926459
19.38907131
19.38883822
19.38856635
19.388257
19.38791168
19.38753211
19.38712016
19.38667784
19.38620722
19.38571045
19.38518969
19.38464709
19.38408474
19.3835047
19.38290891
19.38229925
19.38167743
19.38104509
19.38040372
19.37975467
19.37909919
19.3784384
19.37777331
19.37710484
19.37643384
19.37576107
19.37508725
19.37481664
19.37495047
19.37508513
19.37522116
19.37535912
19.37549956
19.37564303
19.37579009
19.37594129
19.37609719
19.37625832
19.37642525
19.37659852
19.37677866
19.37696622
19.37716171
19.37736564
19.37757851
19.37780079
19.37803293
19.37827535
19.37852844
19.37879253
19.37906792
19.37935485
19.37965349
19.37996394
19.38028622
19.38062026
19.38096588
19.3813228
19.3816906
19.38206875
19.38245657
19.38285322
19.38325771
19.38366888
19.38408541
19.38450579
19.38492836
19.38535125
19.38577245
19.38618978
19.38660092
19.38700338
19.3873946
19.3877719
19.38813254
19.38847375
19.38879273
19.38908675
19.38935313
19.38958929
19.38979281
19.38996145
19.39009318
19.39018624
19.39023914
19.39025075
19.39022008
19.39014666
19.39003032
19.3898712
19.38966977
19.38942684
19.38914348
19.38882104
19.38846112
19.38806551
19.38763616
19.38717517
19.38668472
19.38616703
19.38562437
19.38505896
19.38447302
19.38386868
19.38324796
19.38261281
19.38196505
19.38130635
19.38063826
19.37996222
19.3792795
19.37859127
19.37789858
19.3772024
19.37650359
19.37580294
19.37510122
19.37481885
19.37495711
19.37509622
19.37523676
19.37537929
19.37552438
19.3756726
19.37582454
19.37598075
19.37614181
19.37630829
19.37648075
19.37665976
19.37684588
19.37703967
19.37724165
19.37745235
19.3776723
19.37790197
19.37814183
19.37839232
19.37865384
19.37892673
19.37921131
19.37950782
19.37981644
19.38013727
19.38047035
19.38081558
19.3811728
19.38154171
19.38192189
19.38231278
19.38271367
19.38312372
19.3835419
19.383967
19.38439767
19.38483236
19.38526932
19.38570664
19.38614225
19.38657389
19.38699913
19.38741545
19.38782015
19.38821049
19.38858361
19.38893665
19.38926673
19.389571
19.38984668
19.39009112
19.39030179
19.39047638
19.39061279
19.39070918
19.39076403
19.39077614
19.39074451
19.39066864
19.39054836
19.39038382
19.3901755
19.38992424
19.38963116
19.38929765
19.38892538
19.38851619
19.38807213
19.38759535
19.38708811
19.38655273
19.38599154
19.38540686
19.38480098
19.38417608
19.3835343
19.38287762
19.38220792
19.38152695
19.38083631
19.38013746
19.37943173
19.37872033
19.37800435
19.37728476
19.37656247
19.37583829
19.37511301
19.37482063
19.37496247
19.37510518
19.37524936
19.37539557
19.37554442
19.37569649
19.37585235
19.37601261
19.37617784
19.37634863
19.37652557
19.37670922
19.37690017
19.37709898
19.37730621
19.37752238
19.37774804
19.37798369
19.37822979
19.3784868
19.37875513
19.37903513
19.37932714
19.37963139
19.37994807
19.3802773
19.3806191
19.38097338
19.38133998
19.38171858
19.38210877
19.38250996
19.38292144
19.38334233
19.38377158
19.38420796
19.38465008
19.38509633
19.38554495
19.38599396
19.38644124
19.38688445
19.38732114
19.38774867
19.38816431
19.3885652
19.38894845
19.38931109
19.38965016
19.38996274
19.39024598
19.39049713
19.3907136
19.39089303
19.39103323
19.39113234
19.39118877
19.3912013
19.3911689
19.39109106
19.39096759
19.39079865
19.39058476
19.39032675
19.39002579
19.38968332
19.38930104
19.38888086
19.38842487
19.38793529
19.38741446
19.38686475
19.38628856
19.38568828
19.38506625
19.38442473
19.38376589
19.38309179
19.38240435
19.38170536
19.38099646
19.38027916
19.37955483
19.37882469
19.37808987
19.37735136
19.37661008
19.37586688
19.37512254
19.37482198
19.37496652
19.37511195
19.37525887
19.37540788
19.37555956
19.37571453
19.37587337
19.37603668
19.37620507
19.37637912
19.37655943
19.37674659
19.37694119
19.3771438
19.37735498
19.3775753
19.37780527
19.37804543
19.37829625
19.37855819
19.37883166
19.37911705
19.37941466
19.37972476
19.38004755
19.38038312
19.38073151
19.38109264
19.38146633
19.38185227
19.38225002
19.382659
19.38307849
19.38350758
19.3839452
19.38439012
19.3848409
19.38529591
19.38575335
19.38621122
19.38666733
19.38711932
19.38756466
19.38800069
19.38842461
19.38883352
19.38922443
19.38959435
19.38994024
19.39025912
19.39054808
19.39080432
19.39102521
19.39120829
19.39135139
19.39145256
19.39151019
19.39152304
19.39149006
19.39141072
19.39128484
19.39111258
19.39089446
19.39063134
19.39032441
19.38997515
19.38958529
19.38915678
19.38869176
19.38819251
19.38766138
19.38710082
19.38651328
19.38590118
19.38526692
19.38461282
19.38394107
19.38325378
19.38255292
19.38184029
19.38111759
19.38038634
19.37964793
19.37890362
19.37815454
19.37740172
19.37664608
19.37588849
19.37512975
19.37482288
19.37496923
19.37511649
19.37526525
19.37541612
19.37556971
19.37572662
19.37588745
19.37605281
19.37622331
19.37639955
19.37658212
19.37677164
19.37696868
19.37717383
19.37738767
19.37761076
19.37784363
19.37808681
19.37834079
19.37860603
19.37888296
19.37917195
19.37947332
19.37978735
19.38011422
19.38045405
19.38080686
19.38117258
19.38155102
19.38194188
19.38234471
19.38275892
19.38318377
19.38361837
19.38406161
19.38451226
19.38496885
19.38542974
19.3858931
19.38635691
19.38681894
19.38727682
19.38772798
19.38816972
19.3885992
19.38901348
19.38940955
19.38978435
19.39013483
19.39045794
19.39075075
19.39101041
19.39123426
19.39141981
19.39156484
19.3916674
19.39172584
19.39173892
19.39170554
19.39162521
19.39149771
19.39132322
19.39110226
19.39083571
19.39052478
19.39017096
19.38977601
19.38934191
19.38887082
19.38836506
19.38782703
19.38725919
19.38666402
19.386044
19.38540154
19.38473898
19.38405858
19.38336244
19.38265257
19.3819308
19.38119883
19.38045822
19.37971037
19.37895655
19.37819792
19.37743549
19.37667023
19.37590299
19.37513459
19.37482333
19.37497059
19.37511876
19.37526845
19.37542026
19.3755748
19.37573268
19.37589452
19.37606091
19.37623246
19.37640979
19.37659351
19.3767842
19.37698247
19.3771889
19.37740407
19.37762854
19.37786287
19.37810757
19.37836313
19.37863003
19.37890869
19.37919948
19.37950275
19.37981874
19.38014766
19.38048963
19.38084466
19.38121268
19.38159351
19.38198683
19.38239221
19.38280904
19.38323659
19.38367395
19.38412002
19.38457353
19.38503304
19.38549688
19.38596322
19.38643001
19.38689502
19.38735585
19.38780994
19.38825454
19.38868681
19.38910379
19.38950245
19.38987971
19.39023248
19.39055773
19.39085247
19.39111385
19.39133918
19.39152598
19.39167198
19.39177524
19.39183409
19.39184727
19.3918137
19.39173286
19.39160455
19.39142894
19.39120656
19.39093829
19.39062534
19.39026923
19.38987173
19.38943482
19.38896069
19.38845167
19.38791016
19.38733867
19.38673967
19.38611567
19.38546909
19.3848023
19.38411754
19.38341697
19.38270257
19.38197621
19.3812396
19.38049429
19.3797417
19.37898311
19.37821968
19.37745244
19.37668234
19.37591026
19.37513701
19.37482333
19.37497059
19.37511876
19.37526845
19.37542026
19.3755748
19.37573268
19.37589452
19.3760609
19.37623246
19.37640979
19.37659351
19.3767842
19.37698247
19.3771889
19.37740407
19.37762854
19.37786287
19.37810757
19.37836313
19.37863003
19.37890869
19.37919948
19.37950275
19.37981874
19.38014766
19.38048963
19.38084466
19.38121268
19.38159351
19.38198683
19.38239221
19.38280904
19.38323659
19.38367395
19.38412002
19.38457353
19.38503304
19.38549688
19.38596322
19.38643001
19.38689502
19.38735585
19.38780994
19.38825454
19.38868681
19.38910379
19.38950245
19.38987971
19.39023248
19.39055773
19.39085247
19.39111385
19.39133918
19.39152598
19.39167198
19.39177524
19.39183409
19.39184727
19.3918137
19.39173287
19.39160456
19.39142894
19.39120656
19.39093829
19.39062534
19.39026923
19.38987173
19.38943482
19.38896069
19.38845167
19.38791016
19.38733867
19.38673967
19.38611567
19.38546909
19.3848023
19.38411754
19.38341697
19.38270257
19.38197621
19.3812396
19.38049429
19.3797417
19.37898311
19.37821968
19.37745244
19.37668234
19.37591026
19.37513701
19.37482288
19.37496923
19.37511649
19.37526525
19.37541612
19.37556971
19.37572662
19.37588745
19.37605281
19.37622331
19.37639955
19.37658212
19.37677164
19.37696868
19.37717383
19.37738767
19.37761076
19.37784363
19.37808681
19.37834079
19.37860603
19.37888296
19.37917195
19.37947332
19.37978735
19.38011422
19.38045405
19.38080686
19.38117258
19.38155102
19.38194188
19.38234471
19.38275892
19.38318377
19.38361836
19.38406161
19.38451226
19.38496885
19.38542974
19.3858931
19.38635691
19.38681894
19.38727682
19.38772798
19.38816972
19.3885992
19.38901348
19.38940955
19.38978435
19.39013483
19.39045794
19.39075075
19.39101042
19.39123426
19.39141981
19.39156485
19.3916674
19.39172585
19.39173892
19.39170554
19.39162521
19.39149771
19.39132322
19.39110226
19.39083571
19.39052478
19.39017096
19.38977601
19.38934191
19.38887082
19.38836506
19.38782703
19.38725919
19.38666402
19.386044
19.38540154
19.38473898
19.38405858
19.38336244
19.38265257
19.3819308
19.38119883
19.38045822
19.37971037
19.37895655
19.37819792
19.37743549
19.37667023
19.37590299
19.37513459
19.37482198
19.37496652
19.37511195
19.37525887
19.37540788
19.37555956
19.37571453
19.37587337
19.37603668
19.37620507
19.37637912
19.37655943
19.37674659
19.37694119
19.3771438
19.37735498
19.3775753
19.37780527
19.37804543
19.37829625
19.37855819
19.37883166
19.37911705
19.37941466
19.37972476
19.38004754
19.38038312
19.38073151
19.38109264
19.38146633
19.38185227
19.38225002
19.382659
19.38307849
19.38350758
19.3839452
19.38439012
19.3848409
19.38529591
19.38575335
19.38621122
19.38666733
19.38711932
19.38756466
19.38800069
19.38842461
19.38883352
19.38922443
19.38959435
19.38994024
19.39025912
19.39054808
19.39080432
19.39102521
19.3912083
19.39135139
19.39145256
19.39151019
19.39152304
19.39149006
19.39141073
19.39128485
19.39111258
19.39089446
19.39063134
19.39032442
19.38997516
19.38958529
19.38915679
19.38869177
19.38819251
19.38766138
19.38710082
19.38651328
19.38590118
19.38526693
19.38461282
19.38394107
19.38325378
19.38255292
19.38184029
19.38111759
19.38038634
19.37964793
19.37890362
19.37815454
19.37740172
19.37664608
19.37588849
19.37512975
19.37482063
19.37496247
19.37510518
19.37524935
19.37539557
19.37554442
19.37569649
19.37585235
19.37601261
19.37617784
19.37634863
19.37652557
19.37670922
19.37690017
19.37709898
19.3773062
19.37752238
19.37774804
19.37798368
19.37822979
19.3784868
19.37875513
19.37903513
19.37932714
19.37963139
19.37994807
19.3802773
19.3806191
19.38097338
19.38133998
19.38171858
19.38210877
19.38250996
19.38292144
19.38334233
19.38377157
19.38420796
19.38465007
19.38509633
19.38554495
19.38599396
19.38644124
19.38688445
19.38732114
19.38774867
19.38816431
19.3885652
19.38894845
19.38931109
19.38965017
19.38996275
19.39024598
19.39049713
19.39071361
19.39089303
19.39103324
19.39113235
19.39118877
19.3912013
19.3911689
19.39109106
19.39096759
19.39079866
19.39058476
19.39032675
19.39002579
19.38968332
19.38930104
19.38888086
19.38842487
19.3879353
19.38741446
19.38686475
19.38628857
19.38568828
19.38506625
19.38442473
19.38376589
19.38309179
19.38240435
19.38170536
19.38099646
19.38027916
19.37955483
19.37882469
19.37808987
19.37735136
19.37661008
19.37586688
19.37512254
19.37481885
19.37495711
19.37509622
19.37523676
19.37537928
19.37552438
19.3756726
19.37582454
19.37598075
19.37614181
19.37630828
19.37648075
19.37665976
19.37684588
19.37703967
19.37724164
19.37745235
19.3776723
19.37790197
19.37814183
19.37839232
19.37865384
19.37892673
19.37921131
19.37950782
19.37981644
19.38013727
19.38047035
19.38081558
19.3811728
19.38154171
19.38192189
19.38231277
19.38271367
19.38312372
19.38354189
19.383967
19.38439767
19.38483235
19.38526932
19.38570664
19.38614225
19.38657388
19.38699913
19.38741545
19.38782015
19.38821049
19.38858361
19.38893665
19.38926673
19.389571
19.38984668
19.39009112
19.39030179
19.39047638
19.39061279
19.39070919
19.39076403
19.39077614
19.39074451
19.39066865
19.39054837
19.39038382
19.39017551
19.38992424
19.38963116
19.38929766
19.38892538
19.3885162
19.38807213
19.38759535
19.38708811
19.38655273
19.38599154
19.38540686
19.38480098
19.38417608
19.3835343
19.38287762
19.38220792
19.38152695
19.38083631
19.38013746
19.37943173
19.37872033
19.37800435
19.37728476
19.37656247
19.37583829
19.37511301
19.37481664
19.37495047
19.37508513
19.37522116
19.37535912
19.37549956
19.37564303
19.37579009
19.37594129
19.37609719
19.37625832
19.37642525
19.37659852
19.37677866
19.37696622
19.37716171
19.37736564
19.37757851
19.37780079
19.37803293
19.37827535
19.37852844
19.37879253
19.37906792
19.37935485
19.37965349
19.37996394
19.38028622
19.38062026
19.38096588
19.3813228
19.3816906
19.38206875
19.38245657
19.38285322
19.3832577
19.38366888
19.38408541
19.38450579
19.38492835
19.38535125
19.38577245
19.38618978
19.38660092
19.38700338
19.3873946
19.3877719
19.38813254
19.38847375
19.38879273
19.38908676
19.38935313
19.38958929
19.38979281
19.38996145
19.39009319
19.39018625
19.39023915
19.39025075
19.39022008
19.39014667
19.39003032
19.3898712
19.38966978
19.38942684
19.38914348
19.38882104
19.38846113
19.38806551
19.38763617
19.38717518
19.38668472
19.38616703
19.38562437
19.38505896
19.38447302
19.38386868
19.38324796
19.38261282
19.38196505
19.38130635
19.38063826
19.37996222
19.3792795
19.37859127
19.37789858
19.3772024
19.37650359
19.37580294
19.37510122
19.37481403
19.3749426
19.37507196
19.37520265
19.37533519
19.37547011
19.37560795
19.37574923
19.37589449
19.37604426
19.37619906
19.37635942
19.37652587
19.37669893
19.3768791
19.37706689
19.37726279
19.37746728
19.37768079
19.37790378
19.37813663
19.37837972
19.37863338
19.37889788
19.37917345
19.37946026
19.37975841
19.38006791
19.38038868
19.38072056
19.38106328
19.38141643
19.3817795
19.38215182
19.38253261
19.38292089
19.38331558
19.38371537
19.38411885
19.38452438
19.38493021
19.38533438
19.38573481
19.38612926
19.38651536
19.38689065
19.38725256
19.38759846
19.38792568
19.38823158
19.38851351
19.38876891
19.38899531
19.3891904
19.38935202
19.38947825
19.38956739
19.38961801
19.38962902
19.3895995
19.38952898
19.3894173
19.3892646
19.38907132
19.38883823
19.38856636
19.388257
19.38791168
19.38753211
19.38712016
19.38667784
19.38620722
19.38571045
19.38518969
19.38464709
19.38408474
19.3835047
19.38290891
19.38229925
19.38167743
19.38104509
19.38040372
19.37975467
19.37909919
19.3784384
19.37777331
19.37710484
19.37643384
19.37576107
19.37508725
19.37481101
19.37493354
19.37505682
19.37518136
19.37530766
19.37543623
19.37556758
19.37570222
19.37584064
19.37598335
19.37613086
19.37628367
19.37644228
19.37660718
19.37677886
19.3769578
19.37714446