/*--------------------------------*- C++ -*----------------------------------*\
| =========                 |                                                 |
| \\      /  F ield         | OpenFOAM: The Open Source CFD Toolbox           |
|  \\    /   O peration     | Version:  2312                                  |
|   \\  /    A nd           | Website:  www.openfoam.com                      |
|    \\/     M anipulation  |                                                 |
\*---------------------------------------------------------------------------*/
FoamFile
{
    version     2.0;
    format      ascii;
    arch        "LSB;label=32;scalar=64";
    class       volScalarField;
    location    "0.11";
    object      p;
}
// * * * * * * * * * * * * * * * * * * * * * * * * * * * * * * * * * * * * * //

dimensions      [1 -1 -2 0 0 0 0];

internalField   nonuniform List<scalar> 
299556
(
19.37475311
19.37475935
19.37476564
19.37477198
19.37477843
19.37478498
19.37479169
19.37479856
19.37480563
19.37481293
19.37482047
19.3748283
19.37483642
19.37484488
19.37485368
19.37486287
19.37487246
19.37488248
19.37489296
19.3749039
19.37491534
19.37492729
19.37493977
19.3749528
19.37496638
19.37498052
19.37499524
19.37501053
19.37502638
19.3750428
19.37505976
19.37507725
19.37509525
19.37511371
19.37513261
19.37515188
19.37517149
19.37519136
19.37521142
19.3752316
19.3752518
19.37527192
19.37529186
19.37531152
19.37533076
19.37534948
19.37536753
19.37538479
19.37540113
19.3754164
19.37543049
19.37544326
19.37545459
19.37546436
19.37547247
19.37547882
19.37548332
19.37548591
19.37548654
19.37548514
19.37548171
19.37547623
19.37546871
19.37545917
19.37544766
19.37543422
19.37541891
19.37540182
19.37538302
19.37536262
19.37534071
19.37531739
19.37529278
19.37526698
19.37524009
19.37521223
19.37518349
19.37515397
19.37512377
19.37509297
19.37506166
19.3750299
19.37499776
19.3749653
19.37493259
19.37489967
19.37486658
19.37483337
19.37480006
19.3747667
19.37475928
19.37477794
19.3747967
19.37481567
19.3748349
19.37485449
19.37487452
19.37489505
19.37491617
19.37493796
19.3749605
19.37498387
19.37500814
19.37503339
19.3750597
19.37508715
19.3751158
19.37514573
19.37517701
19.37520971
19.37524388
19.37527958
19.37531687
19.37535578
19.37539635
19.37543861
19.37548257
19.37552824
19.37557561
19.37562466
19.37567534
19.37572761
19.37578137
19.37583654
19.375893
19.37595061
19.3760092
19.37606858
19.37612853
19.37618883
19.37624919
19.37630933
19.37636895
19.37642769
19.37648522
19.37654116
19.37659512
19.37664672
19.37669556
19.37674123
19.37678335
19.37682153
19.3768554
19.37688462
19.37690887
19.37692786
19.37694134
19.37694909
19.37695096
19.37694679
19.37693654
19.37692017
19.37689769
19.37686919
19.37683477
19.37679459
19.37674885
19.37669776
19.37664158
19.3765806
19.37651511
19.37644542
19.37637186
19.37629474
19.37621439
19.37613112
19.37604524
19.37595703
19.37586678
19.37577475
19.37568117
19.37558626
19.37549023
19.37539327
19.37529552
19.37519715
19.37509829
19.37499905
19.37489955
19.37479989
19.3747654
19.37479635
19.37482748
19.37485894
19.37489086
19.37492336
19.37495658
19.37499065
19.37502569
19.37506185
19.37509924
19.37513801
19.37517828
19.37522017
19.37526383
19.37530936
19.37535691
19.37540657
19.37545847
19.37551272
19.37556942
19.37562866
19.37569053
19.37575509
19.37582241
19.37589253
19.37596548
19.37604127
19.37611988
19.37620127
19.37628538
19.37637211
19.37646134
19.37655291
19.37664661
19.37674222
19.37683947
19.37693803
19.37703755
19.37713763
19.37723783
19.37733767
19.37743664
19.37753417
19.37762968
19.37772255
19.37781215
19.37789782
19.37797891
19.37805475
19.3781247
19.3781881
19.37824436
19.37829289
19.37833317
19.37836471
19.37838711
19.37839999
19.37840311
19.37839621
19.37837919
19.37835201
19.37831471
19.37826739
19.37821026
19.37814355
19.3780676
19.37798278
19.37788952
19.37778827
19.37767955
19.37756387
19.37744175
19.37731373
19.37718035
19.37704213
19.37689958
19.37675317
19.37660338
19.37645062
19.3762953
19.37613779
19.37597842
19.37581749
19.37565528
19.37549203
19.37532796
19.37516328
19.37499817
19.37483279
19.37477143
19.37481447
19.37485779
19.37490155
19.37494595
19.37499117
19.37503738
19.37508477
19.37513352
19.37518382
19.37523584
19.37528977
19.37534579
19.37540407
19.3754648
19.37552816
19.3755943
19.37566339
19.3757356
19.37581108
19.37588996
19.37597238
19.37605845
19.37614829
19.37624195
19.37633952
19.37644103
19.37654649
19.37665587
19.37676913
19.37688618
19.37700688
19.37713105
19.37725849
19.3773889
19.37752198
19.37765733
19.37779452
19.37793305
19.37807237
19.37821187
19.37835087
19.37848865
19.37862444
19.37875743
19.37888675
19.37901152
19.37913084
19.37924377
19.3793494
19.37944682
19.37953514
19.3796135
19.37968112
19.37973724
19.37978119
19.3798124
19.37983037
19.37983473
19.37982515
19.37980147
19.37976364
19.37971171
19.37964584
19.37956628
19.37947341
19.37936766
19.37924956
19.3791197
19.37897875
19.37882737
19.37866631
19.3784963
19.37831808
19.3781324
19.37793999
19.37774156
19.37753777
19.37732926
19.37711665
19.37690048
19.37668125
19.37645945
19.37623549
19.37600974
19.37578256
19.37555425
19.37532508
19.37509532
19.37486519
19.37477732
19.3748322
19.37488743
19.37494323
19.37499984
19.37505749
19.37511641
19.37517683
19.37523899
19.37530312
19.37536945
19.37543822
19.37550964
19.37558396
19.3756614
19.37574218
19.37582652
19.37591462
19.3760067
19.37610295
19.37620354
19.37630864
19.37641841
19.37653297
19.37665243
19.37677686
19.37690632
19.37704082
19.37718034
19.3773248
19.3774741
19.37762807
19.37778647
19.37794904
19.37811542
19.3782852
19.3784579
19.37863295
19.37880972
19.37898751
19.37916553
19.37934293
19.37951879
19.37969212
19.37986187
19.38002696
19.38018626
19.38033859
19.38048279
19.38061767
19.38074207
19.38085487
19.38095496
19.38104133
19.38111302
19.38116919
19.38120907
19.38123206
19.38123767
19.38122547
19.38119527
19.38114701
19.38108074
19.38099666
19.38089512
19.38077657
19.38064158
19.38049084
19.38032509
19.38014517
19.37995197
19.37974641
19.37952942
19.37930198
19.37906503
19.3788195
19.37856628
19.37830625
19.37804022
19.37776895
19.37749315
19.37721348
19.37693052
19.37664481
19.37635684
19.37606705
19.37577582
19.37548351
19.37519044
19.37489693
19.37478304
19.37484942
19.37491622
19.37498372
19.37505219
19.37512192
19.37519318
19.37526627
19.37534146
19.37541903
19.37549926
19.37558244
19.37566884
19.37575873
19.37585241
19.37595012
19.37605214
19.37615872
19.37627011
19.37638654
19.37650824
19.37663539
19.37676819
19.37690679
19.37705132
19.37720188
19.37735852
19.37752127
19.3776901
19.37786491
19.37804559
19.37823192
19.37842364
19.3786204
19.37882179
19.37902731
19.37923637
19.37944829
19.37966231
19.37987757
19.38009313
19.38030796
19.38052093
19.38073086
19.38093647
19.38113645
19.38132942
19.38151397
19.38168868
19.38185212
19.38200288
19.38213958
19.3822609
19.3823656
19.38245252
19.38252062
19.38256901
19.38259692
19.38260378
19.38258905
19.38255252
19.38249409
19.38241384
19.38231203
19.38218905
19.38204546
19.38188197
19.3816994
19.38149865
19.38128076
19.38104677
19.38079783
19.38053508
19.38025967
19.37997276
19.37967547
19.3793689
19.3790541
19.37873204
19.37840367
19.37806982
19.3777313
19.37738883
19.37704304
19.37669452
19.37634381
19.37599137
19.37563763
19.37528298
19.37492779
19.37478856
19.37486604
19.37494399
19.37502277
19.37510268
19.37518406
19.37526724
19.37535254
19.37544029
19.37553082
19.37562447
19.37572155
19.37582239
19.37592732
19.37603665
19.37615071
19.37626979
19.3763942
19.37652422
19.37666013
19.37680219
19.37695062
19.37710565
19.37726746
19.3774362
19.37761198
19.37779487
19.3779849
19.37818203
19.37838617
19.37859715
19.37881476
19.37903867
19.37926848
19.37950372
19.37974379
19.37998801
19.38023559
19.38048565
19.38073718
19.38098907
19.38124013
19.38148905
19.38173442
19.38197477
19.38220856
19.38243417
19.38264997
19.38285427
19.38304541
19.38322174
19.38338164
19.38352357
19.38364606
19.38374778
19.3838275
19.38388416
19.38391688
19.38392497
19.38390782
19.38386517
19.38379691
19.38370314
19.38358415
19.38344041
19.38327258
19.38308148
19.38286807
19.38263343
19.38237875
19.38210528
19.38181434
19.38150727
19.38118543
19.38085017
19.38050281
19.38014463
19.37977684
19.3794006
19.379017
19.37862704
19.37823164
19.37783163
19.37742777
19.37702075
19.37661117
19.37619959
19.3757865
19.37537237
19.37495761
19.37479385
19.37488193
19.37497057
19.37506014
19.375151
19.37524353
19.37533811
19.3754351
19.37553488
19.37563782
19.3757443
19.37585469
19.37596935
19.37608867
19.376213
19.3763427
19.37647811
19.37661959
19.37676746
19.37692202
19.37708358
19.3772524
19.37742872
19.37761276
19.37780469
19.37800463
19.37821268
19.37842885
19.37865311
19.37888536
19.37912541
19.37937301
19.37962779
19.37988932
19.38015703
19.38043026
19.38070823
19.38099006
19.38127472
19.38156108
19.38184789
19.38213377
19.38241723
19.38269669
19.38297046
19.38323677
19.3834938
19.38373966
19.38397246
19.38419028
19.38439124
19.3845735
19.3847353
19.38487496
19.38499096
19.3850819
19.38514656
19.38518393
19.38519325
19.3851738
19.38512529
19.3850476
19.38494084
19.38480533
19.38464163
19.38445049
19.38423284
19.38398978
19.38372255
19.38343251
19.38312108
19.38278977
19.38244011
19.38207366
19.38169195
19.38129649
19.38088873
19.38047007
19.38004183
19.37960523
19.37916141
19.37871143
19.37825623
19.37779668
19.37733354
19.37686751
19.37639923
19.37592924
19.37545806
19.37498619
19.37479886
19.37489702
19.3749958
19.3750956
19.37519686
19.37529997
19.37540536
19.37551345
19.37562464
19.37573936
19.37585802
19.37598104
19.37610883
19.3762418
19.37638036
19.37652491
19.37667583
19.37683352
19.37699832
19.3771706
19.37735068
19.37753886
19.37773541
19.37794056
19.37815452
19.37837743
19.37860937
19.37885039
19.37910044
19.37935941
19.3796271
19.37990322
19.38018738
19.38047907
19.38077768
19.38108247
19.38139258
19.38170701
19.38202464
19.38234419
19.38266427
19.38298334
19.38329974
19.38361171
19.38391735
19.38421471
19.38450172
19.3847763
19.38503631
19.38527963
19.38550414
19.38570778
19.38588858
19.38604468
19.38617435
19.38627603
19.38634837
19.38639023
19.38640075
19.38637914
19.38632506
19.38623839
19.38611924
19.38596799
19.38578526
19.38557188
19.38532891
19.38505757
19.38475926
19.38443548
19.38408785
19.38371806
19.38332781
19.38291884
19.38249287
19.38205159
19.38159661
19.38112951
19.38065175
19.3801647
19.37966963
19.37916771
19.37866
19.37814746
19.37763096
19.37711125
19.37658904
19.37606494
19.37553954
19.37501337
19.37480358
19.3749112
19.3750195
19.37512894
19.37523996
19.37535302
19.37546858
19.3755871
19.37570902
19.37583481
19.37596492
19.37609982
19.37623995
19.37638576
19.3765377
19.37669622
19.37686173
19.37703465
19.37721539
19.37740433
19.37760183
19.37780822
19.3780238
19.37824883
19.37848353
19.37872804
19.37898249
19.37924691
19.37952124
19.37980538
19.38009911
19.3804021
19.38071393
19.38103405
19.38136179
19.38169635
19.38203677
19.38238197
19.3827307
19.38308159
19.38343308
19.3837835
19.38413103
19.38447371
19.38480949
19.3851362
19.38545158
19.38575333
19.38603911
19.38630657
19.38655338
19.38677728
19.3869761
19.38714777
19.38729041
19.38740231
19.38748195
19.38752809
19.38753977
19.38751615
19.38745683
19.38736169
19.38723085
19.38706473
19.38686401
19.38662961
19.3863627
19.38606464
19.38573695
19.3853813
19.38499948
19.38459332
19.38416473
19.38371561
19.38324786
19.38276332
19.38226379
19.38175099
19.38122651
19.38069188
19.38014848
19.3795976
19.3790404
19.37847793
19.37791113
19.37734084
19.37676783
19.37619277
19.37561629
19.37503896
19.37480796
19.37492439
19.37504155
19.37515994
19.37528005
19.37540236
19.37552738
19.37565559
19.3757875
19.37592358
19.37606435
19.3762103
19.3763619
19.37651966
19.37668406
19.37685556
19.37703464
19.37722175
19.37741732
19.37762177
19.37783548
19.37805883
19.37829212
19.37853565
19.37878965
19.3790543
19.37932971
19.37961591
19.37991288
19.38022047
19.38053846
19.3808665
19.38120414
19.38155078
19.3819057
19.38226803
19.38263674
19.38301065
19.38338843
19.38376858
19.38414942
19.38452914
19.38490576
19.38527718
19.38564115
19.38599532
19.38633725
19.38666444
19.38697435
19.38726442
19.38753214
19.38777504
19.38799075
19.38817705
19.38833187
19.38845336
19.38853987
19.38859005
19.38860287
19.38857738
19.38851319
19.38841015
19.38826838
19.38808836
19.38787081
19.38761677
19.38732747
19.38700442
19.38664926
19.38626381
19.38585001
19.38540987
19.38494545
19.38445881
19.38395203
19.38342709
19.38288596
19.38233048
19.38176241
19.38118338
19.38059489
19.37999834
19.37939499
19.37878595
19.37817226
19.37755483
19.37693446
19.37631189
19.37568781
19.37506282
19.37481198
19.3749365
19.37506181
19.37518842
19.37531687
19.37544769
19.37558139
19.37571851
19.37585959
19.37600514
19.37615569
19.37631178
19.37647394
19.37664267
19.37681851
19.37700195
19.3771935
19.37739365
19.37760285
19.37782155
19.37805017
19.3782891
19.37853869
19.37879923
19.37907099
19.37935415
19.37964883
19.37995509
19.38027288
19.38060206
19.38094239
19.38129349
19.3816549
19.38202596
19.38240592
19.38279384
19.38318863
19.38358902
19.38399359
19.38440073
19.38480865
19.38521542
19.38561891
19.38601686
19.38640687
19.38678643
19.38715291
19.38750363
19.38783585
19.38814685
19.38843392
19.38869441
19.38892578
19.38912563
19.38929175
19.38942214
19.38951504
19.38956899
19.38958287
19.3895557
19.38948703
19.38937669
19.38922485
19.38903199
19.38879891
19.38852671
19.38821674
19.3878706
19.38749007
19.3870771
19.38663378
19.38616226
19.38566476
19.38514351
19.38460071
19.38403851
19.38345901
19.38286419
19.38225593
19.38163597
19.38100594
19.38036731
19.37972144
19.37906952
19.37841266
19.37775181
19.37708784
19.37642155
19.37575364
19.37508477
19.37481563
19.37494747
19.37508014
19.3752142
19.3753502
19.37548871
19.37563028
19.37577547
19.37592484
19.37607895
19.37623837
19.37640365
19.37657535
19.37675403
19.37694022
19.37713448
19.37733732
19.37754927
19.37777081
19.37800243
19.37824455
19.37849761
19.37876195
19.37903791
19.37932576
19.3796257
19.37993787
19.3802623
19.38059897
19.38094773
19.38130831
19.38168035
19.38206332
19.38245656
19.38285924
19.3832704
19.38368887
19.38411332
19.38454223
19.38497391
19.38540646
19.38583782
19.38626574
19.38668784
19.38710156
19.38750423
19.38789307
19.38826522
19.38861779
19.38894787
19.38925259
19.38952913
19.38977478
19.38998701
19.39016345
19.39030198
19.39040073
19.39045813
19.39047302
19.39044433
19.3903716
19.39025464
19.39009364
19.3898891
19.38964189
19.38935317
19.38902438
19.38865723
19.38825361
19.3878156
19.38734542
19.38684537
19.38631779
19.38576506
19.38518951
19.38459345
19.38397908
19.38334852
19.38270375
19.38204663
19.38137887
19.38070205
19.38001759
19.37932676
19.37863072
19.37793048
19.37722697
19.37652101
19.37581335
19.37510469
19.37481887
19.37495722
19.37509644
19.37523712
19.37537984
19.37552518
19.37567374
19.3758261
19.37598286
19.37614458
19.37631188
19.37648533
19.37666552
19.37685304
19.37704845
19.37725232
19.37746521
19.37768765
19.37792018
19.37816328
19.37841742
19.37868303
19.37896051
19.37925019
19.37955236
19.37986724
19.38019496
19.38053559
19.38088907
19.38125526
19.3816339
19.38202458
19.38242677
19.38283976
19.38326272
19.38369459
19.38413419
19.3845801
19.38503073
19.38548431
19.38593884
19.38639216
19.38684192
19.3872856
19.3877205
19.38814383
19.38855267
19.38894399
19.38931477
19.38966193
19.38998245
19.39027336
19.39053182
19.39075514
19.39094084
19.39108667
19.39119067
19.3912512
19.39126701
19.39123698
19.39116063
19.39103777
19.39086859
19.39065362
19.39039378
19.3900903
19.3897447
19.38935877
19.38893452
19.38847414
19.38797997
19.38745442
19.38689998
19.38631914
19.38571437
19.38508808
19.38444259
19.38378014
19.38310281
19.38241255
19.38171116
19.38100029
19.38028143
19.37955592
19.37882497
19.37808964
19.37735089
19.3766096
19.37586653
19.37512243
19.37482168
19.37496569
19.3751106
19.37525703
19.37540559
19.37555688
19.37571151
19.37587011
19.37603327
19.37620162
19.37637576
19.37655632
19.37674389
19.37693908
19.3771425
19.37735473
19.37757635
19.37780792
19.37805
19.37830308
19.37856767
19.37884421
19.37913311
19.37943473
19.37974936
19.38007723
19.38041849
19.3807732
19.38114131
19.38152269
19.38191703
19.38232395
19.38274287
19.38317308
19.38361369
19.38406362
19.38452163
19.38498624
19.38545582
19.38592849
19.38640221
19.38687469
19.38734351
19.38780602
19.38825943
19.38870081
19.38912711
19.38953519
19.38992188
19.39028398
19.39061832
19.39092181
19.39119147
19.39142451
19.39161831
19.39177055
19.39187917
19.39194244
19.39195907
19.39192789
19.3918484
19.39172039
19.39154407
19.39132
19.39104914
19.39073277
19.39037248
19.38997016
19.3895279
19.38904799
19.38853287
19.38798508
19.3874072
19.38680184
19.38617157
19.38551892
19.38484631
19.38415606
19.38345034
19.3827312
19.38200051
19.38125997
19.38051115
19.37975544
19.37899408
19.3782282
19.37745878
19.37668672
19.37591283
19.37513787
19.37482406
19.37497283
19.37512254
19.37527382
19.37542729
19.3755836
19.37574335
19.3759072
19.37607577
19.3762497
19.37642962
19.37661616
19.37680995
19.37701162
19.37722179
19.37744107
19.37767006
19.37790933
19.37815945
19.37842096
19.37869436
19.37898012
19.37927866
19.37959034
19.37991549
19.38025432
19.38060701
19.38097361
19.38135408
19.38174826
19.38215588
19.38257651
19.38300956
19.38345431
19.38390984
19.38437503
19.3848486
19.38532903
19.38581462
19.38630345
19.38679339
19.38728209
19.38776703
19.38824548
19.38871456
19.38917123
19.38961232
19.39003461
19.39043479
19.39080955
19.39115561
19.39146976
19.39174893
19.39199021
19.3921909
19.39234858
19.39246112
19.39252673
19.39254407
19.39251193
19.39242978
19.39229742
19.39211506
19.39188329
19.3916031
19.39127582
19.39090311
19.3904869
19.3900294
19.38953296
19.38900011
19.38843349
19.38783578
19.38720967
19.38655784
19.38588289
19.38518734
19.38447359
19.38374388
19.38300033
19.38224487
19.38147928
19.38070514
19.37992392
19.37913689
19.3783452
19.37754987
19.37675184
19.37595192
19.3751509
19.37482597
19.3749786
19.37513218
19.37528738
19.37544482
19.37560517
19.37576907
19.37593716
19.3761101
19.37628853
19.37647311
19.37666449
19.37686331
19.37707021
19.37728583
19.37751081
19.37774574
19.37799123
19.37824786
19.37851618
19.37879669
19.3790899
19.37939622
19.37971605
19.38004969
19.38039739
19.38075931
19.38113552
19.38152598
19.38193052
19.38234887
19.38278059
19.38322508
19.38368159
19.38414919
19.38462673
19.38511289
19.38560613
19.38610469
19.3866066
19.38710967
19.38761152
19.38810952
19.3886009
19.38908267
19.38955173
19.39000483
19.39043863
19.39084975
19.39123478
19.39159035
19.39191317
19.39220006
19.39244803
19.39265432
19.39281642
19.39293215
19.39299967
19.39301759
19.39298468
19.39290039
19.39276451
19.39257726
19.39233925
19.39205149
19.39171537
19.39133258
19.39090513
19.39043527
19.38992543
19.38937823
19.38879635
19.38818257
19.38753966
19.38687036
19.38617736
19.38546324
19.38473045
19.38398133
19.38321802
19.38244252
19.38165665
19.38086204
19.38006017
19.37925237
19.37843981
19.37762354
19.37680449
19.37598353
19.37516145
19.37482742
19.37498295
19.37513947
19.37529762
19.37545807
19.37562147
19.37578849
19.37595979
19.37613603
19.37631787
19.37650597
19.376701
19.37690362
19.37711447
19.37733422
19.37756349
19.37780292
19.37805312
19.37831466
19.37858812
19.37887402
19.37917285
19.37948506
19.37981104
19.3801511
19.3805055
19.38087441
19.38125789
19.3816559
19.38206828
19.38249474
19.38293485
19.38338799
19.38385341
19.38433013
19.38481702
19.38531271
19.38581564
19.38632402
19.38683583
19.38734886
19.38786065
19.38836856
19.38886972
19.38936112
19.38983957
19.39030177
19.3907443
19.39116372
19.39155654
19.39191932
19.39224871
19.39254146
19.39279451
19.39300505
19.39317051
19.39328867
19.39335764
19.39337601
19.39334251
19.3932566
19.39311806
19.3929271
19.39268437
19.39239088
19.39204806
19.39165764
19.39122166
19.39074244
19.39022245
19.38966436
19.38907094
19.38844499
19.38778935
19.38710683
19.38640015
19.38567197
19.38492478
19.38416096
19.3833827
19.38259204
19.38179082
19.38098071
19.38016323
19.37933972
19.37851137
19.37767925
19.37684432
19.37600744
19.37516942
19.37482839
19.37498587
19.37514435
19.37530448
19.37546694
19.3756324
19.37580151
19.37597496
19.37615341
19.37633753
19.37652799
19.37672547
19.37693063
19.37714414
19.37736665
19.37759881
19.37784125
19.37809459
19.37835943
19.37863634
19.37892584
19.37922845
19.37954461
19.37987471
19.38021908
19.38057797
19.38095156
19.38133991
19.38174298
19.38216062
19.38259253
19.38303826
19.38349721
19.38396859
19.38445145
19.3849446
19.38544669
19.38595612
19.38647109
19.38698956
19.38750926
19.38802774
19.38854229
19.38905003
19.38954789
19.39003265
19.39050095
19.39094935
19.39137434
19.3917724
19.39214004
19.39247384
19.39277053
19.393027
19.39324039
19.39340812
19.3935279
19.39359785
19.39361652
19.39358264
19.39349564
19.39335531
19.39316187
19.39291596
19.39261863
19.3922713
19.39187576
19.39143406
19.39094855
19.39042175
19.38985635
19.38925517
19.38862105
19.38795687
19.38726546
19.38654962
19.38581199
19.38505514
19.38428145
19.38349316
19.38269232
19.38188081
19.38106031
19.38023236
19.37939831
19.37855937
19.37771662
19.37687103
19.37602347
19.37517477
19.37482888
19.37498734
19.3751468
19.37530793
19.3754714
19.37563788
19.37580804
19.37598257
19.37616212
19.37634739
19.37653904
19.37673774
19.37694418
19.37715902
19.37738291
19.37761652
19.37786047
19.37811539
19.37838189
19.37866052
19.37895184
19.37925634
19.37957448
19.37990664
19.38025317
19.38061432
19.38099026
19.38138106
19.38178667
19.38220695
19.38264159
19.38309014
19.383552
19.38402638
19.38451231
19.38500861
19.38551391
19.38602661
19.38654489
19.38706669
19.38758975
19.38811158
19.38862947
19.38914051
19.38964161
19.39012954
19.39060092
19.39105227
19.39148006
19.39188075
19.39225082
19.39258684
19.3928855
19.3931437
19.39335852
19.39352738
19.39364799
19.39371843
19.39373726
19.39370318
19.39361564
19.39347441
19.39327972
19.39303221
19.39273295
19.39238337
19.39198525
19.39154068
19.391052
19.39052178
19.38995272
19.38934764
19.38870941
19.38804094
19.38734508
19.38662463
19.38588227
19.38512056
19.38434193
19.3835486
19.38274265
19.38192597
19.38110026
19.38026705
19.37942771
19.37858345
19.37773537
19.37688443
19.37603152
19.37517745
19.37482888
19.37498734
19.3751468
19.37530793
19.3754714
19.37563788
19.37580804
19.37598257
19.37616212
19.37634739
19.37653904
19.37673774
19.37694418
19.37715902
19.37738291
19.37761652
19.37786047
19.37811539
19.37838188
19.37866052
19.37895184
19.37925634
19.37957448
19.37990664
19.38025317
19.38061432
19.38099026
19.38138105
19.38178667
19.38220695
19.38264159
19.38309014
19.383552
19.38402638
19.38451231
19.38500861
19.38551391
19.38602661
19.38654489
19.38706669
19.38758975
19.38811158
19.38862947
19.38914051
19.38964161
19.39012954
19.39060092
19.39105227
19.39148006
19.39188075
19.39225082
19.39258684
19.3928855
19.3931437
19.39335852
19.39352738
19.39364799
19.39371843
19.39373726
19.39370318
19.39361564
19.39347441
19.39327972
19.39303221
19.39273295
19.39238337
19.39198524
19.39154068
19.391052
19.39052178
19.38995272
19.38934764
19.38870941
19.38804094
19.38734508
19.38662463
19.38588227
19.38512056
19.38434192
19.3835486
19.38274265
19.38192597
19.38110026
19.38026705
19.37942771
19.37858345
19.37773537
19.37688443
19.37603152
19.37517745
19.37482839
19.37498587
19.37514435
19.37530448
19.37546694
19.3756324
19.37580151
19.37597496
19.37615341
19.37633753
19.37652799
19.37672547
19.37693063
19.37714414
19.37736665
19.3775988
19.37784125
19.37809459
19.37835943
19.37863633
19.37892584
19.37922845
19.37954461
19.37987471
19.38021908
19.38057797
19.38095156
19.38133991
19.38174298
19.38216062
19.38259253
19.38303826
19.38349721
19.38396859
19.38445144
19.3849446
19.38544669
19.38595612
19.38647109
19.38698956
19.38750926
19.38802774
19.38854229
19.38905003
19.38954789
19.39003265
19.39050095
19.39094935
19.39137434
19.3917724
19.39214004
19.39247384
19.39277053
19.393027
19.39324039
19.39340812
19.3935279
19.39359785
19.39361652
19.39358264
19.39349564
19.39335531
19.39316187
19.39291596
19.39261863
19.3922713
19.39187576
19.39143406
19.39094854
19.39042174
19.38985635
19.38925516
19.38862105
19.38795686
19.38726546
19.38654961
19.38581199
19.38505514
19.38428145
19.38349316
19.38269232
19.38188081
19.38106031
19.38023236
19.37939831
19.37855937
19.37771662
19.37687103
19.37602347
19.37517477
19.37482742
19.37498295
19.37513947
19.37529762
19.37545807
19.37562147
19.37578849
19.37595979
19.37613603
19.37631787
19.37650597
19.376701
19.37690362
19.37711447
19.37733422
19.37756349
19.37780292
19.37805311
19.37831466
19.37858812
19.37887402
19.37917285
19.37948506
19.37981104
19.3801511
19.3805055
19.38087441
19.38125788
19.38165589
19.38206828
19.38249474
19.38293485
19.38338799
19.3838534
19.38433013
19.38481702
19.38531271
19.38581564
19.38632401
19.38683583
19.38734886
19.38786065
19.38836855
19.38886972
19.38936112
19.38983957
19.39030176
19.3907443
19.39116372
19.39155654
19.39191932
19.39224871
19.39254146
19.39279451
19.39300505
19.39317051
19.39328867
19.39335764
19.39337601
19.39334251
19.3932566
19.39311806
19.3929271
19.39268436
19.39239088
19.39204805
19.39165763
19.39122166
19.39074243
19.39022245
19.38966436
19.38907093
19.38844498
19.38778935
19.38710682
19.38640015
19.38567196
19.38492478
19.38416096
19.3833827
19.38259203
19.38179081
19.38098071
19.38016323
19.37933972
19.37851137
19.37767925
19.37684432
19.37600744
19.37516942
19.37482597
19.3749786
19.37513218
19.37528738
19.37544482
19.37560517
19.37576907
19.37593716
19.3761101
19.37628853
19.37647311
19.37666449
19.3768633
19.37707021
19.37728583
19.37751081
19.37774574
19.37799123
19.37824786
19.37851617
19.37879669
19.3790899
19.37939622
19.37971605
19.38004969
19.38039739
19.38075931
19.38113552
19.38152597
19.38193052
19.38234887
19.38278059
19.38322508
19.38368159
19.38414919
19.38462673
19.38511289
19.38560612
19.38610468
19.38660659
19.38710967
19.38761151
19.38810952
19.38860089
19.38908267
19.38955173
19.39000483
19.39043863
19.39084975
19.39123478
19.39159035
19.39191317
19.39220006
19.39244803
19.39265432
19.39281642
19.39293215
19.39299967
19.39301759
19.39298468
19.39290039
19.39276451
19.39257726
19.39233925
19.39205149
19.39171537
19.39133258
19.39090513
19.39043526
19.38992543
19.38937822
19.38879635
19.38818257
19.38753966
19.38687036
19.38617736
19.38546323
19.38473045
19.38398133
19.38321802
19.38244252
19.38165664
19.38086204
19.38006017
19.37925237
19.37843981
19.37762354
19.37680449
19.37598353
19.37516145
19.37482406
19.37497283
19.37512254
19.37527382
19.37542729
19.3755836
19.37574335
19.3759072
19.37607577
19.3762497
19.37642962
19.37661616
19.37680995
19.37701162
19.37722179
19.37744107
19.37767006
19.37790933
19.37815945
19.37842096
19.37869436
19.37898012
19.37927865
19.37959034
19.37991548
19.38025432
19.38060701
19.3809736
19.38135407
19.38174826
19.38215588
19.3825765
19.38300956
19.38345431
19.38390983
19.38437503
19.38484859
19.38532903
19.38581462
19.38630345
19.38679338
19.38728209
19.38776703
19.38824548
19.38871456
19.38917122
19.38961232
19.39003461
19.39043479
19.39080955
19.3911556
19.39146976
19.39174893
19.39199021
19.3921909
19.39234858
19.39246112
19.39252673
19.39254407
19.39251193
19.39242978
19.39229742
19.39211506
19.39188329
19.3916031
19.39127582
19.3909031
19.3904869
19.39002939
19.38953295
19.38900011
19.38843349
19.38783578
19.38720967
19.38655784
19.38588289
19.38518734
19.38447358
19.38374388
19.38300033
19.38224487
19.38147927
19.38070514
19.37992391
19.37913688
19.37834519
19.37754987
19.37675183
19.37595192
19.3751509
19.37482168
19.37496569
19.3751106
19.37525703
19.37540559
19.37555688
19.37571151
19.37587011
19.37603327
19.37620162
19.37637576
19.37655631
19.37674389
19.37693908
19.3771425
19.37735473
19.37757635
19.37780792
19.37804999
19.37830308
19.37856767
19.37884421
19.37913311
19.37943472
19.37974935
19.38007723
19.38041849
19.38077319
19.38114131
19.38152268
19.38191703
19.38232395
19.38274287
19.38317308
19.38361368
19.38406362
19.38452162
19.38498624
19.38545582
19.38592849
19.3864022
19.38687469
19.38734351
19.38780601
19.38825943
19.38870081
19.38912711
19.38953519
19.38992188
19.39028398
19.39061832
19.39092181
19.39119147
19.39142451
19.39161831
19.39177055
19.39187916
19.39194244
19.39195907
19.39192789
19.39184839
19.39172039
19.39154406
19.39132
19.39104913
19.39073276
19.39037248
19.38997015
19.38952789
19.38904798
19.38853287
19.38798507
19.38740719
19.38680183
19.38617156
19.38551891
19.3848463
19.38415605
19.38345034
19.38273119
19.3820005
19.38125997
19.38051115
19.37975543
19.37899408
19.3782282
19.37745878
19.37668672
19.37591283
19.37513787
19.37481887
19.37495722
19.37509644
19.37523712
19.37537984
19.37552518
19.37567374
19.3758261
19.37598286
19.37614458
19.37631188
19.37648533
19.37666552
19.37685304
19.37704844
19.37725232
19.3774652
19.37768765
19.37792018
19.37816327
19.37841741
19.37868303
19.37896051
19.37925019
19.37955236
19.37986724
19.38019496
19.38053558
19.38088907
19.38125526
19.3816339
19.38202458
19.38242676
19.38283976
19.38326271
19.38369459
19.38413418
19.38458009
19.38503073
19.3854843
19.38593884
19.38639216
19.38684192
19.38728559
19.3877205
19.38814383
19.38855266
19.38894399
19.38931477
19.38966193
19.38998245
19.39027336
19.39053182
19.39075514
19.39094084
19.39108667
19.39119067
19.3912512
19.39126701
19.39123698
19.39116063
19.39103777
19.39086858
19.39065362
19.39039378
19.3900903
19.38974469
19.38935876
19.38893451
19.38847413
19.38797996
19.38745441
19.38689997
19.38631913
19.38571436
19.38508807
19.38444259
19.38378013
19.3831028
19.38241254
19.38171116
19.38100029
19.38028143
19.37955592
19.37882496
19.37808964
19.37735089
19.3766096
19.37586653
19.37512243
19.37481563
19.37494747
19.37508014
19.3752142
19.3753502
19.37548871
19.37563028
19.37577547
19.37592484
19.37607895
19.37623837
19.37640365
19.37657535
19.37675403
19.37694022