/*--------------------------------*- C++ -*----------------------------------*\
| =========                 |                                                 |
| \\      /  F ield         | OpenFOAM: The Open Source CFD Toolbox           |
|  \\    /   O peration     | Version:  2312                                  |
|   \\  /    A nd           | Website:  www.openfoam.com                      |
|    \\/     M anipulation  |                                                 |
\*---------------------------------------------------------------------------*/
FoamFile
{
    version     2.0;
    format      ascii;
    arch        "LSB;label=32;scalar=64";
    class       surfaceVectorField;
    location    "0.11/beam";
    object      Gamma;
}
// * * * * * * * * * * * * * * * * * * * * * * * * * * * * * * * * * * * * * //

dimensions      [0 0 0 0 0 0 0];

oriented        oriented;

internalField   nonuniform List<vector> 
59
(
(0.0003258098696 1.078784275e-18 1.785130142e-08)
(0.000325809644 1.252220523e-18 2.048207175e-08)
(0.0003258092689 1.533618339e-18 2.482491941e-08)
(0.0003258087459 1.911409521e-18 3.081538259e-08)
(0.0003258080769 2.36934623e-18 3.835982343e-08)
(0.0003258072645 2.886331861e-18 4.73325211e-08)
(0.000325806312 3.436842534e-18 5.757240659e-08)
(0.000325805223 3.990623481e-18 6.887984395e-08)
(0.000325804002 4.513189627e-18 8.101432814e-08)
(0.0003258026543 4.966511777e-18 9.369314574e-08)
(0.0003258011863 5.309324477e-18 1.065917468e-07)
(0.0003257996054 5.497913085e-18 1.193466185e-07)
(0.0003257979207 5.487930343e-18 1.315605865e-07)
(0.000325796143 5.235715022e-18 1.428116669e-07)
(0.0003257942851 4.700252919e-18 1.526646717e-07)
(0.000325792362 3.845439955e-18 1.606864251e-07)
(0.0003257903908 2.642829937e-18 1.664634054e-07)
(0.0003257883907 1.073861535e-18 1.696216921e-07)
(0.0003257863828 -8.670160503e-19 1.698477908e-07)
(0.0003257843893 -3.168839817e-18 1.669093728e-07)
(0.0003257824327 -5.802224664e-18 1.606740119e-07)
(0.0003257805356 -8.716593935e-18 1.511242383e-07)
(0.000325778719 -1.183802341e-17 1.383715751e-07)
(0.0003257770009 -1.50701017e-17 1.226489006e-07)
(0.0003257753979 -1.829007123e-17 1.043302303e-07)
(0.0003257739213 -2.135593357e-17 8.389042861e-08)
(0.0003257725798 -2.410396838e-17 6.19227522e-08)
(0.0003257713774 -2.635992519e-17 3.907824718e-08)
(0.0003257703159 -2.794202912e-17 1.608062288e-08)
(0.0003257693939 -2.868489902e-17 -6.343257372e-09)
(0.0003257686094 -2.842496484e-17 -2.744562848e-08)
(0.0003257679595 -2.70352439e-17 -4.652029166e-08)
(0.0003257674427 -2.446209648e-17 -6.287796136e-08)
(0.0003257670591 -2.071862389e-17 -7.58903445e-08)
(0.0003257668113 -1.592093492e-17 -8.49643602e-08)
(0.0003257667052 -1.030257481e-17 -8.957198927e-08)
(0.0003257667499 -4.24133058e-18 -8.924801298e-08)
(0.0003257669582 1.740493786e-18 -8.363204885e-08)
(0.0003257673463 6.965662145e-18 -7.253364422e-08)
(0.0003257679345 1.062989115e-17 -5.602645863e-08)
(0.0003257687464 1.183057975e-17 -3.461995079e-08)
(0.000325769811 9.636839481e-18 -9.420245966e-09)
(0.0003257711617 3.179087101e-18 1.761834209e-08)
(0.00032577284 -8.237159347e-18 4.35513288e-08)
(0.0003257748952 -2.497866366e-17 6.42999584e-08)
(0.0003257773897 -4.69556554e-17 7.479322977e-08)
(0.0003257803953 -7.344703554e-17 6.933392357e-08)
(0.0003257839935 -1.030273677e-16 4.243753965e-08)
(0.0003257882574 -1.334570046e-16 -9.83962897e-09)
(0.0003257932364 -1.617458154e-16 -8.817734753e-08)
(0.0003257989201 -1.841753896e-16 -1.878710712e-07)
(0.0003258052258 -1.964601777e-16 -2.97199665e-07)
(0.0003258119963 -1.937582252e-16 -3.96548531e-07)
(0.0003258190631 -1.705198029e-16 -4.601685344e-07)
(0.000325826324 -1.198565493e-16 -4.611713357e-07)
(0.0003258338216 -3.207386616e-17 -3.814445158e-07)
(0.0003258416809 1.0776447e-16 -2.258626107e-07)
(0.000325849919 3.239133818e-16 -3.755193605e-08)
(0.0003258582123 6.54965424e-16 9.386589745e-08)
)
;

boundaryField
{
    left
    {
        type            calculated;
        value           uniform (-0.000325809945 -4.517323933e-14 -1.697029394e-08);
    }
    right
    {
        type            calculated;
        value           uniform (0.0003258659911 -4.400650063e-14 4.953151248e-08);
    }
    beam
    {
        type            empty;
        value           nonuniform List<vector> 0();
    }
}


// ************************************************************************* //
