/*--------------------------------*- C++ -*----------------------------------*\
| =========                 |                                                 |
| \\      /  F ield         | OpenFOAM: The Open Source CFD Toolbox           |
|  \\    /   O peration     | Version:  2312                                  |
|   \\  /    A nd           | Website:  www.openfoam.com                      |
|    \\/     M anipulation  |                                                 |
\*---------------------------------------------------------------------------*/
FoamFile
{
    version     2.0;
    format      ascii;
    arch        "LSB;label=32;scalar=64";
    class       surfaceVectorField;
    location    "0.11/beam";
    object      K;
}
// * * * * * * * * * * * * * * * * * * * * * * * * * * * * * * * * * * * * * //

dimensions      [0 -1 0 0 0 0 0];

oriented        oriented;

internalField   nonuniform List<vector> 
59
(
(4.391570864e-19 0.0001927379031 -1.16180223e-14)
(8.781042873e-19 0.0004049183775 -2.452038454e-14)
(1.31675158e-18 0.0006557070558 -3.99409473e-14)
(1.755501239e-18 0.000963704361 -5.901127935e-14)
(2.195443099e-18 0.001346635513 -8.270864193e-14)
(2.639041373e-18 0.001821011399 -1.118039136e-13)
(3.090464683e-18 0.002401755266 -1.468096436e-13)
(3.556125328e-18 0.003101793505 -1.879298731e-13)
(4.047503924e-18 0.003931615863 -2.35009912e-13)
(4.577203147e-18 0.004898815478 -2.87493272e-13)
(5.164601499e-18 0.006007623548 -3.443849745e-13)
(5.837527955e-18 0.007258461955 -4.042195347e-13)
(6.630506636e-18 0.008647541135 -4.650439321e-13)
(7.585897663e-18 0.01016653631 -5.244176924e-13)
(8.754507434e-18 0.01180237694 -5.794316659e-13)
(1.019568016e-17 0.01353718474 -6.26749585e-13)
(1.196848719e-17 0.01534839351 -6.626779041e-13)
(1.414545899e-17 0.0172090772 -6.832626216e-13)
(1.679769761e-17 0.01908850364 -6.844161425e-13)
(1.997691877e-17 0.02095291844 -6.620809296e-13)
(2.372430614e-17 0.02276654747 -6.124226676e-13)
(2.805331267e-17 0.02449273924 -5.320524865e-13)
(3.293689782e-17 0.02609545715 -4.182653167e-13)
(3.829980932e-17 0.02754057151 -2.692989335e-13)
(4.399895744e-17 0.02879721776 -8.460997963e-14)
(4.983230509e-17 0.02983927885 1.348817825e-13)
(5.551792685e-17 0.03064655109 3.865640723e-13)
(6.071992675e-17 0.03120572033 6.659533933e-13)
(6.504914288e-17 0.03151108367 9.665948674e-13)
(6.854222862e-17 0.03156496954 1.280111546e-12)
(7.037795436e-17 0.03137787065 1.596304926e-12)
(6.98065216e-17 0.03096832944 1.903367741e-12)
(6.705451607e-17 0.03036261436 2.18849216e-12)
(6.206717486e-17 0.0295942881 2.438645494e-12)
(5.498783674e-17 0.02870367543 2.641509723e-12)
(4.61651833e-17 0.02773730757 2.78670222e-12)
(3.618779334e-17 0.02674721529 2.867224452e-12)
(2.584750539e-17 0.02579000068 2.881060762e-12)
(1.615954256e-17 0.0249253176 2.832836538e-12)
(8.299566011e-18 0.02421346898 2.735379663e-12)
(3.607513637e-18 0.02371153381 2.610968711e-12)
(3.515880304e-18 0.02346765137 2.49203445e-12)
(9.507037324e-18 0.02351302291 2.42097789e-12)
(2.304320116e-17 0.02385173272 2.448861781e-12)
(4.54571967e-17 0.02444898387 2.63262755e-12)
(7.793319268e-17 0.02521932021 3.03075343e-12)
(1.213809695e-16 0.02601765735 3.697231637e-12)
(1.765196926e-16 0.02663698377 4.674172994e-12)
(2.435634419e-16 0.02681805578 5.98339828e-12)
(3.218735356e-16 0.0262759893 7.617774605e-12)
(4.083621657e-16 0.02474813509 9.53302658e-12)
(4.953877287e-16 0.02206274553 1.164056578e-11)
(5.675288291e-16 0.01822155541 1.380127202e-11)
(6.005457573e-16 0.01347750762 1.581850379e-11)
(5.655364031e-16 0.008375121672 1.742678081e-11)
(4.43829235e-16 0.003708323651 1.826886056e-11)
(2.52279347e-16 0.0003446930243 1.785121011e-11)
(6.284764677e-17 -0.001113601711 1.546343366e-11)
(-2.310673192e-17 -0.0007992780568 1.004733588e-11)
)
;

boundaryField
{
    left
    {
        type            calculated;
        value           uniform (-4.459735111e-30 -1.227839607e-34 6.608331043e-33);
    }
    right
    {
        type            calculated;
        value           uniform (-1.997179594e-30 -1.099536511e-27 2.547327086e-31);
    }
    beam
    {
        type            empty;
        value           nonuniform List<vector> 0();
    }
}


// ************************************************************************* //
