/*--------------------------------*- C++ -*----------------------------------*\
| =========                 |                                                 |
| \\      /  F ield         | OpenFOAM: The Open Source CFD Toolbox           |
|  \\    /   O peration     | Version:  2312                                  |
|   \\  /    A nd           | Website:  www.openfoam.com                      |
|    \\/     M anipulation  |                                                 |
\*---------------------------------------------------------------------------*/
FoamFile
{
    version     2.0;
    format      ascii;
    arch        "LSB;label=32;scalar=64";
    class       surfaceVectorField;
    location    "0.11/beam";
    object      M;
}
// * * * * * * * * * * * * * * * * * * * * * * * * * * * * * * * * * * * * * //

dimensions      [1 2 -2 0 0 0 0];

oriented        oriented;

internalField   nonuniform List<vector> 
59
(
(3.498278292e-21 1.162568048e-07 -7.006008857e-18)
(7.386842218e-21 2.442410965e-07 -1.478653005e-17)
(1.202202326e-20 3.955133162e-07 -2.408563011e-17)
(1.769426791e-20 5.812929787e-07 -3.558567998e-17)
(2.460291759e-20 8.122716886e-07 -4.987598272e-17)
(3.28426948e-20 1.098408582e-06 -6.742136581e-17)
(4.240848204e-20 1.448705152e-06 -8.853085101e-17)
(5.322799307e-20 1.870958417e-06 -1.133273913e-16)
(6.523124749e-20 2.371495646e-06 -1.417175807e-16)
(7.847374837e-20 2.954896913e-06 -1.733656817e-16)
(9.332556738e-20 3.623714418e-06 -2.076714968e-16)
(1.107384987e-19 4.378202633e-06 -2.437510619e-16)
(1.326093879e-19 5.216075747e-06 -2.804263787e-16)
(1.622474416e-19 6.132312369e-06 -3.162254675e-16)
(2.049466339e-19 7.119028538e-06 -3.493936986e-16)
(2.686549641e-19 8.165440312e-06 -3.779188623e-16)
(3.647139537e-19 9.257936086e-06 -3.995732999e-16)
(5.086247837e-19 1.038027444e-05 -4.119723091e-16)
(7.207681591e-19 1.151391815e-05 -4.126506708e-16)
(1.026963269e-18 1.263850706e-05 -3.991613667e-16)
(1.458729832e-18 1.37324627e-05 -3.691920996e-16)
(2.053060943e-18 1.477367741e-05 -3.206993418e-16)
(2.851582771e-18 1.574041442e-05 -2.520521093e-16)
(3.898788118e-18 1.661208717e-05 -1.621882145e-16)
(5.239100893e-18 1.737007859e-05 -5.078074739e-17)
(6.912911947e-18 1.799863525e-05 8.161462138e-17)
(8.951259338e-18 1.848557057e-05 2.334213181e-16)
(1.136948836e-17 1.882285362e-05 4.019341518e-16)
(1.416019871e-17 1.900704451e-05 5.832589985e-16)
(1.728667821e-17 1.903954772e-05 7.72342672e-16)
(2.067641713e-17 1.892669229e-05 9.63033703e-16)
(2.42160661e-17 1.867966276e-05 1.148210859e-15)
(2.775197719e-17 1.83143039e-05 1.320150116e-15)
(3.109536813e-17 1.785086026e-05 1.470992626e-15)
(3.403311306e-17 1.731365517e-05 1.593311399e-15)
(3.634647463e-17 1.67307556e-05 1.680847473e-15)
(3.78381793e-17 1.61335458e-05 1.729383411e-15)
(3.836719426e-17 1.555616735e-05 1.737707139e-15)
(3.789027504e-17 1.503460262e-05 1.708611391e-15)
(3.650758694e-17 1.46052255e-05 1.649834626e-15)
(3.450863529e-17 1.430246523e-05 1.574812845e-15)
(3.241347545e-17 1.415535876e-05 1.50310156e-15)
(3.100192011e-17 1.418272624e-05 1.460264911e-15)
(3.132379261e-17 1.438703125e-05 1.477085433e-15)
(3.468003445e-17 1.474728479e-05 1.587884783e-15)
(4.256811241e-17 1.521194088e-05 1.8279048e-15)
(5.658237222e-17 1.569348667e-05 2.229675541e-15)
(7.826804382e-17 1.606705569e-05 2.818556503e-15)
(1.089251174e-16 1.617627579e-05 3.6076681e-15)
(1.493650061e-16 1.584930888e-05 4.59267107e-15)
(1.996126433e-16 1.492772861e-05 5.746834737e-15)
(2.585362404e-16 1.330793922e-05 7.016723108e-15)
(3.233645579e-16 1.099098712e-05 8.318460645e-15)
(3.890345849e-16 8.129443911e-06 9.533540596e-15)
(4.473399239e-16 5.051756141e-06 1.050203009e-14)
(4.859174179e-16 2.23680891e-06 1.100877613e-14)
(4.872703839e-16 2.079140065e-07 1.075656585e-14)
(4.280394588e-16 -6.717089619e-07 9.317512099e-15)
(2.784009076e-16 -4.82113334e-07 6.054023426e-15)
)
;

boundaryField
{
    left
    {
        type            calculated;
        value           uniform (-5.380091119e-33 -7.406156645e-38 -3.294081116e-36);
    }
    right
    {
        type            calculated;
        value           uniform (-2.399909192e-33 -6.632250298e-31 2.62586518e-34);
    }
    beam
    {
        type            empty;
        value           nonuniform List<vector> 0();
    }
}


// ************************************************************************* //
