/*--------------------------------*- C++ -*----------------------------------*\
| =========                 |                                                 |
| \\      /  F ield         | OpenFOAM: The Open Source CFD Toolbox           |
|  \\    /   O peration     | Version:  2312                                  |
|   \\  /    A nd           | Website:  www.openfoam.com                      |
|    \\/     M anipulation  |                                                 |
\*---------------------------------------------------------------------------*/
FoamFile
{
    version     2.0;
    format      ascii;
    arch        "LSB;label=32;scalar=64";
    class       pointVectorField;
    location    "0.11/beam";
    object      pointW;
}
// * * * * * * * * * * * * * * * * * * * * * * * * * * * * * * * * * * * * * //

dimensions      [0 1 0 0 0 0 0];

internalField   nonuniform List<vector> 
1952
(
(5.412645032e-06 6.266227923e-17 3.658426171e-09)
(5.308641058e-06 6.147426318e-17 3.5881295e-09)
(5.000634492e-06 5.789639601e-17 3.379946747e-09)
(4.500451965e-06 5.204170428e-17 3.041871574e-09)
(3.827321897e-06 4.423544864e-17 2.58690054e-09)
(3.007103201e-06 3.469446952e-17 2.032511776e-09)
(2.071324533e-06 2.385244779e-17 1.400015616e-09)
(1.055954273e-06 1.214306433e-17 7.137232151e-10)
(2.241324076e-16 0 -6.235904928e-17)
(-1.055954272e-06 -1.214306433e-17 -7.137233375e-10)
(-2.071324532e-06 -2.385244779e-17 -1.400015731e-09)
(-3.0071032e-06 -3.469446952e-17 -2.03251188e-09)
(-3.827321897e-06 -4.423544864e-17 -2.586900628e-09)
(-4.500451965e-06 -5.204170428e-17 -3.041871643e-09)
(-5.000634492e-06 -5.789639601e-17 -3.379946795e-09)
(-5.308641058e-06 -6.147426318e-17 -3.588129524e-09)
(-5.412645032e-06 -6.266227923e-17 -3.658426171e-09)
(-5.308641058e-06 -6.147426318e-17 -3.5881295e-09)
(-5.000634492e-06 -5.789639601e-17 -3.379946747e-09)
(-4.500451965e-06 -5.204170428e-17 -3.041871574e-09)
(-3.827321897e-06 -4.423544864e-17 -2.58690054e-09)
(-3.007103201e-06 -3.469446952e-17 -2.032511776e-09)
(-2.071324533e-06 -2.385244779e-17 -1.400015616e-09)
(-1.055954273e-06 -1.214306433e-17 -7.137232151e-10)
(-2.24132921e-16 0 6.235904894e-17)
(1.055954272e-06 1.214306433e-17 7.137233375e-10)
(2.071324532e-06 2.385244779e-17 1.400015731e-09)
(3.0071032e-06 3.469446952e-17 2.03251188e-09)
(3.827321897e-06 4.423544864e-17 2.586900628e-09)
(4.500451965e-06 5.204170428e-17 3.041871643e-09)
(5.000634492e-06 5.789639601e-17 3.379946795e-09)
(5.308641058e-06 6.147426318e-17 3.588129524e-09)
(1.978035084e-05 3.537748873e-15 5.984065512e-05)
(1.967667481e-05 3.536559066e-15 5.984058526e-05)
(1.936963944e-05 3.532981199e-15 5.984037838e-05)
(1.887103407e-05 3.527126508e-15 5.984004242e-05)
(1.820002649e-05 3.519320252e-15 5.983959029e-05)
(1.738239407e-05 3.509779273e-15 5.983903937e-05)
(1.644956606e-05 3.498937251e-15 5.983841082e-05)
(1.543739742e-05 3.486794187e-15 5.983772882e-05)
(1.438477274e-05 3.474651122e-15 5.983701956e-05)
(1.333214806e-05 3.462508058e-15 5.98363103e-05)
(1.231997943e-05 3.451232355e-15 5.983562829e-05)
(1.138715142e-05 3.440390334e-15 5.983499975e-05)
(1.0569519e-05 3.430849355e-15 5.983444883e-05)
(9.898511417e-06 3.423043099e-15 5.98339967e-05)
(9.399906045e-06 3.417188407e-15 5.983366074e-05)
(9.092870673e-06 3.41361054e-15 5.983345385e-05)
(8.98919464e-06 3.412425989e-15 5.9833384e-05)
(9.092870673e-06 3.41361054e-15 5.983345385e-05)
(9.399906045e-06 3.417188407e-15 5.983366074e-05)
(9.898511417e-06 3.423043099e-15 5.98339967e-05)
(1.0569519e-05 3.430849355e-15 5.983444883e-05)
(1.138715142e-05 3.440390334e-15 5.983499975e-05)
(1.231997942e-05 3.451232355e-15 5.983562829e-05)
(1.333214806e-05 3.462508058e-15 5.98363103e-05)
(1.438477274e-05 3.474651122e-15 5.983701956e-05)
(1.543739742e-05 3.486794187e-15 5.983772882e-05)
(1.644956606e-05 3.498937251e-15 5.983841083e-05)
(1.738239407e-05 3.509779273e-15 5.983903937e-05)
(1.820002649e-05 3.519320252e-15 5.983959029e-05)
(1.887103407e-05 3.527126508e-15 5.984004242e-05)
(1.936963944e-05 3.532981199e-15 5.984037838e-05)
(1.967667481e-05 3.536559066e-15 5.984058526e-05)
(3.411271794e-05 5.989439382e-15 0.0001192902086)
(3.401005881e-05 5.988157019e-15 0.0001192901401)
(3.370603498e-05 5.984795992e-15 0.0001192899372)
(3.321232016e-05 5.97872446e-15 0.0001192896078)
(3.254789413e-05 5.970918204e-15 0.0001192891645)
(3.173828144e-05 5.961377225e-15 0.0001192886243)
(3.081460304e-05 5.950535203e-15 0.000119288008)
(2.981236222e-05 5.93882582e-15 0.0001192873393)
(2.877006217e-05 5.926682756e-15 0.0001192866438)
(2.772776212e-05 5.914539691e-15 0.0001192859483)
(2.672552131e-05 5.902830308e-15 0.0001192852796)
(2.580184291e-05 5.891988286e-15 0.0001192846633)
(2.499223021e-05 5.882447307e-15 0.0001192841231)
(2.432780419e-05 5.874641051e-15 0.0001192836798)
(2.383408937e-05 5.8690032e-15 0.0001192833504)
(2.353006554e-05 5.865208492e-15 0.0001192831475)
(2.342740641e-05 5.86412198e-15 0.000119283079)
(2.353006554e-05 5.865208492e-15 0.0001192831475)
(2.383408937e-05 5.8690032e-15 0.0001192833504)
(2.432780418e-05 5.874641051e-15 0.0001192836798)
(2.499223021e-05 5.882447307e-15 0.0001192841231)
(2.580184291e-05 5.891988286e-15 0.0001192846633)
(2.672552131e-05 5.902830308e-15 0.0001192852796)
(2.772776212e-05 5.914539691e-15 0.0001192859483)
(2.877006217e-05 5.926682756e-15 0.0001192866438)
(2.981236222e-05 5.93882582e-15 0.0001192873393)
(3.081460304e-05 5.950535203e-15 0.000119288008)
(3.173828144e-05 5.961377225e-15 0.0001192886243)
(3.254789413e-05 5.970918204e-15 0.0001192891645)
(3.321232016e-05 5.97872446e-15 0.0001192896078)
(3.370603498e-05 5.984795992e-15 0.0001192899372)
(3.401005881e-05 5.988157019e-15 0.0001192901401)
(4.840515975e-05 8.391838072e-15 0.0001779269266)
(4.830430526e-05 8.390640613e-15 0.0001779268605)
(4.800562586e-05 8.387171166e-15 0.0001779266647)
(4.752059004e-05 8.381316474e-15 0.0001779263468)
(4.686784394e-05 8.373510219e-15 0.0001779259189)
(4.60724634e-05 8.363969239e-15 0.0001779253975)
(4.516502232e-05 8.353127218e-15 0.0001779248027)
(4.418039986e-05 8.341417834e-15 0.0001779241572)
(4.315642238e-05 8.32927477e-15 0.000177923486)
(4.213244489e-05 8.317131706e-15 0.0001779228147)
(4.114782244e-05 8.305422322e-15 0.0001779221693)
(4.024038135e-05 8.2945803e-15 0.0001779215744)
(3.944500081e-05 8.285039321e-15 0.0001779210531)
(3.879225471e-05 8.277233066e-15 0.0001779206252)
(3.830721889e-05 8.271378374e-15 0.0001779203072)
(3.800853949e-05 8.267692087e-15 0.0001779201114)
(3.7907685e-05 8.266530497e-15 0.0001779200453)
(3.800853949e-05 8.267692087e-15 0.0001779201114)
(3.830721889e-05 8.271378374e-15 0.0001779203072)
(3.879225471e-05 8.277233066e-15 0.0001779206252)
(3.944500081e-05 8.285039321e-15 0.0001779210531)
(4.024038135e-05 8.2945803e-15 0.0001779215744)
(4.114782244e-05 8.305422322e-15 0.0001779221693)
(4.213244489e-05 8.317131706e-15 0.0001779228147)
(4.315642238e-05 8.32927477e-15 0.000177923486)
(4.418039986e-05 8.341417834e-15 0.0001779241572)
(4.516502232e-05 8.353127218e-15 0.0001779248027)
(4.60724634e-05 8.363969239e-15 0.0001779253975)
(4.686784394e-05 8.373510219e-15 0.0001779259189)
(4.752059004e-05 8.381316474e-15 0.0001779263468)
(4.800562586e-05 8.387171166e-15 0.0001779266647)
(4.830430526e-05 8.390640613e-15 0.0001779268605)
(6.264981916e-05 1.071416037e-14 0.0002352499812)
(6.255172008e-05 1.071300167e-14 0.0002352499187)
(6.22612008e-05 1.070953222e-14 0.0002352497334)
(6.178941647e-05 1.070367753e-14 0.0002352494326)
(6.115450382e-05 1.069587127e-14 0.0002352490278)
(6.038085359e-05 1.068633029e-14 0.0002352485345)
(5.949820439e-05 1.067548827e-14 0.0002352479717)
(5.854048247e-05 1.066334521e-14 0.000235247361)
(5.754448071e-05 1.065120214e-14 0.0002352467259)
(5.654847896e-05 1.063905908e-14 0.0002352460909)
(5.559075703e-05 1.062778338e-14 0.0002352454802)
(5.470810783e-05 1.061694135e-14 0.0002352449174)
(5.393445761e-05 1.060740037e-14 0.0002352444241)
(5.329954496e-05 1.059959412e-14 0.0002352440193)
(5.282776063e-05 1.059373943e-14 0.0002352437184)
(5.253724135e-05 1.059005314e-14 0.0002352435332)
(5.243914227e-05 1.058886733e-14 0.0002352434706)
(5.253724135e-05 1.059005314e-14 0.0002352435332)
(5.282776063e-05 1.059373943e-14 0.0002352437184)
(5.329954496e-05 1.059959412e-14 0.0002352440193)
(5.393445761e-05 1.060740037e-14 0.0002352444241)
(5.470810783e-05 1.061694135e-14 0.0002352449174)
(5.559075703e-05 1.062778338e-14 0.0002352454802)
(5.654847896e-05 1.063905908e-14 0.0002352460909)
(5.754448071e-05 1.065120214e-14 0.0002352467259)
(5.854048247e-05 1.066334521e-14 0.000235247361)
(5.949820439e-05 1.067548827e-14 0.0002352479717)
(6.038085359e-05 1.068633029e-14 0.0002352485345)
(6.115450382e-05 1.069587127e-14 0.0002352490278)
(6.178941647e-05 1.070367753e-14 0.0002352494326)
(6.22612008e-05 1.070953222e-14 0.0002352497334)
(6.255172008e-05 1.071300167e-14 0.0002352499187)
(7.683571694e-05 1.291854392e-14 0.0002906467899)
(7.674154887e-05 1.291740152e-14 0.0002906467323)
(7.646267123e-05 1.291371524e-14 0.0002906465616)
(7.600979218e-05 1.290807738e-14 0.0002906462844)
(7.540032164e-05 1.290027113e-14 0.0002906459114)
(7.465767301e-05 1.289073015e-14 0.0002906454568)
(7.381039319e-05 1.287988813e-14 0.0002906449382)
(7.289104895e-05 1.286817874e-14 0.0002906443755)
(7.193495883e-05 1.285603568e-14 0.0002906437903)
(7.09788687e-05 1.284389262e-14 0.0002906432051)
(7.005952446e-05 1.283218323e-14 0.0002906426424)
(6.921224464e-05 1.282134121e-14 0.0002906421238)
(6.846959601e-05 1.281180023e-14 0.0002906416693)
(6.786012548e-05 1.280399398e-14 0.0002906412962)
(6.740724642e-05 1.279792244e-14 0.000290641019)
(6.712836878e-05 1.2794453e-14 0.0002906408483)
(6.703420071e-05 1.279327065e-14 0.0002906407907)
(6.712836878e-05 1.2794453e-14 0.0002906408483)
(6.740724642e-05 1.279792244e-14 0.000290641019)
(6.786012548e-05 1.280399398e-14 0.0002906412962)
(6.846959601e-05 1.281180023e-14 0.0002906416693)
(6.921224464e-05 1.282134121e-14 0.0002906421238)
(7.005952446e-05 1.283218323e-14 0.0002906426424)
(7.09788687e-05 1.284389262e-14 0.0002906432051)
(7.193495883e-05 1.285603568e-14 0.0002906437903)
(7.289104895e-05 1.286817874e-14 0.0002906443755)
(7.381039319e-05 1.287988813e-14 0.0002906449382)
(7.465767301e-05 1.289073015e-14 0.0002906454568)
(7.540032164e-05 1.290027113e-14 0.0002906459114)
(7.600979218e-05 1.290807738e-14 0.0002906462844)
(7.646267123e-05 1.291371524e-14 0.0002906465616)
(7.674154887e-05 1.291740152e-14 0.0002906467323)
(9.094893414e-05 1.49581597e-14 0.0003433584242)
(9.086015578e-05 1.495700265e-14 0.0003433583729)
(9.059723969e-05 1.49535332e-14 0.0003433582212)
(9.017028115e-05 1.494767851e-14 0.0003433579749)
(8.959569365e-05 1.493987226e-14 0.0003433576433)
(8.88955505e-05 1.493033128e-14 0.0003433572393)
(8.809676472e-05 1.491948926e-14 0.0003433567784)
(8.723003912e-05 1.490734619e-14 0.0003433562783)
(8.632867079e-05 1.489520313e-14 0.0003433557582)
(8.542730246e-05 1.488306006e-14 0.0003433552381)
(8.456057686e-05 1.487178436e-14 0.0003433547379)
(8.376179108e-05 1.486094234e-14 0.000343354277)
(8.306164792e-05 1.485140136e-14 0.000343353873)
(8.248706042e-05 1.48435951e-14 0.0003433535415)
(8.206010188e-05 1.483774041e-14 0.0003433532951)
(8.17971858e-05 1.483405412e-14 0.0003433531434)
(8.170840744e-05 1.483291144e-14 0.0003433530922)
(8.17971858e-05 1.483405412e-14 0.0003433531434)
(8.206010188e-05 1.483774041e-14 0.0003433532951)
(8.248706042e-05 1.48435951e-14 0.0003433535415)
(8.306164792e-05 1.485140136e-14 0.000343353873)
(8.376179108e-05 1.486094234e-14 0.000343354277)
(8.456057686e-05 1.487178436e-14 0.0003433547379)
(8.542730246e-05 1.488306006e-14 0.0003433552381)
(8.632867079e-05 1.489520313e-14 0.0003433557582)
(8.723003912e-05 1.490734619e-14 0.0003433562783)
(8.809676472e-05 1.491948926e-14 0.0003433567784)
(8.88955505e-05 1.493033128e-14 0.0003433572393)
(8.959569365e-05 1.493987226e-14 0.0003433576433)
(9.017028115e-05 1.494767851e-14 0.0003433579749)
(9.059723969e-05 1.49535332e-14 0.0003433582212)
(9.086015578e-05 1.495700265e-14 0.0003433583729)
(0.0001049728254 1.677572691e-14 0.0003924474132)
(0.000104891232 1.677445075e-14 0.0003924473699)
(0.0001046495942 1.677108973e-14 0.0003924472418)
(0.0001042571902 1.676523503e-14 0.0003924470337)
(0.000103729105 1.675742878e-14 0.0003924467536)
(0.0001030856257 1.67478878e-14 0.0003924464124)
(0.000102351487 1.673704578e-14 0.0003924460231)
(0.0001015549071 1.672533639e-14 0.0003924456007)
(0.000100726488 1.671319333e-14 0.0003924451614)
(9.989806902e-05 1.670105026e-14 0.0003924447221)
(9.910148904e-05 1.668934088e-14 0.0003924442997)
(9.836735039e-05 1.667849886e-14 0.0003924439104)
(9.772387105e-05 1.666895788e-14 0.0003924435692)
(9.719578592e-05 1.666115163e-14 0.0003924432891)
(9.680338188e-05 1.665529693e-14 0.0003924430811)
(9.656174405e-05 1.665171907e-14 0.0003924429529)
(9.648015068e-05 1.665050843e-14 0.0003924429097)
(9.656174405e-05 1.665171907e-14 0.0003924429529)
(9.680338188e-05 1.665529693e-14 0.0003924430811)
(9.719578592e-05 1.666115163e-14 0.0003924432891)
(9.772387105e-05 1.666895788e-14 0.0003924435692)
(9.836735039e-05 1.667849886e-14 0.0003924439104)
(9.910148904e-05 1.668934088e-14 0.0003924442997)
(9.989806902e-05 1.670105026e-14 0.0003924447221)
(0.000100726488 1.671319333e-14 0.0003924451614)
(0.0001015549071 1.672533639e-14 0.0003924456007)
(0.000102351487 1.673704578e-14 0.0003924460231)
(0.0001030856257 1.67478878e-14 0.0003924464124)
(0.000103729105 1.675742878e-14 0.0003924467536)
(0.0001042571902 1.676523503e-14 0.0003924470337)
(0.0001046495942 1.677108973e-14 0.0003924472418)
(0.000104891232 1.677445075e-14 0.0003924473699)
(0.0001188882545 1.830252379e-14 0.0004367686898)
(0.0001188160254 1.830133267e-14 0.0004367686559)
(0.0001186021196 1.829786322e-14 0.0004367685555)
(0.0001182547505 1.829179169e-14 0.0004367683925)
(0.0001177872721 1.828398544e-14 0.0004367681731)
(0.0001172176429 1.827444446e-14 0.0004367679057)
(0.000116567759 1.826360244e-14 0.0004367676007)
(0.0001158626001 1.825189305e-14 0.0004367672698)
(0.0001151292561 1.823974999e-14 0.0004367669256)
(0.0001143959122 1.822760692e-14 0.0004367665814)
(0.0001136907532 1.821589754e-14 0.0004367662504)
(0.0001130408694 1.820505552e-14 0.0004367659454)
(0.0001124712401 1.819551454e-14 0.000436765678)
(0.0001120037617 1.818770828e-14 0.0004367654586)
(0.0001116563927 1.818207043e-14 0.0004367652956)
(0.0001114424869 1.817860099e-14 0.0004367651952)
(0.0001113702577 1.817733773e-14 0.0004367651613)
(0.0001114424869 1.817860099e-14 0.0004367651952)
(0.0001116563927 1.818207043e-14 0.0004367652956)
(0.0001120037617 1.818770828e-14 0.0004367654586)
(0.0001124712401 1.819551454e-14 0.000436765678)
(0.0001130408694 1.820505552e-14 0.0004367659454)
(0.0001136907532 1.821589754e-14 0.0004367662504)
(0.0001143959122 1.822760692e-14 0.0004367665814)
(0.0001151292561 1.823974999e-14 0.0004367669256)
(0.0001158626001 1.825189305e-14 0.0004367672698)
(0.000116567759 1.826360244e-14 0.0004367676007)
(0.0001172176429 1.827444446e-14 0.0004367679057)
(0.0001177872721 1.828398544e-14 0.0004367681731)
(0.0001182547505 1.829179169e-14 0.0004367683925)
(0.0001186021196 1.829786322e-14 0.0004367685555)
(0.0001188160254 1.830133267e-14 0.0004367686559)
(0.0001326738371 1.94580305e-14 0.0004749444654)
(0.0001326135752 1.945687535e-14 0.0004749444418)
(0.0001324351103 1.945318906e-14 0.000474944372)
(0.0001321452949 1.944755121e-14 0.0004749442585)
(0.0001317552704 1.943974495e-14 0.0004749441058)
(0.00013128002 1.943020397e-14 0.0004749439198)
(0.0001307378118 1.941936195e-14 0.0004749437076)
(0.0001301494868 1.940808625e-14 0.0004749434773)
(0.0001295376466 1.939594318e-14 0.0004749432378)
(0.0001289258064 1.938380012e-14 0.0004749429983)
(0.0001283374814 1.937165706e-14 0.000474942768)
(0.0001277952733 1.936081503e-14 0.0004749425557)
(0.0001273200228 1.935127406e-14 0.0004749423697)
(0.0001269299983 1.93434678e-14 0.000474942217)
(0.000126640183 1.933739627e-14 0.0004749421036)
(0.000126461718 1.933414366e-14 0.0004749420337)
(0.0001264014561 1.933287566e-14 0.0004749420101)
(0.000126461718 1.933414366e-14 0.0004749420337)
(0.000126640183 1.933739627e-14 0.0004749421036)
(0.0001269299983 1.93434678e-14 0.000474942217)
(0.0001273200228 1.935127406e-14 0.0004749423697)
(0.0001277952733 1.936081503e-14 0.0004749425557)
(0.0001283374814 1.937165706e-14 0.000474942768)
(0.0001289258064 1.938380012e-14 0.0004749429983)
(0.0001295376466 1.939594318e-14 0.0004749432378)
(0.0001301494868 1.940808625e-14 0.0004749434773)
(0.0001307378118 1.941936195e-14 0.0004749437076)
(0.00013128002 1.943020397e-14 0.0004749439198)
(0.0001317552704 1.943974495e-14 0.0004749441058)
(0.0001321452949 1.944755121e-14 0.0004749442585)
(0.0001324351103 1.945318906e-14 0.000474944372)
(0.0001326135752 1.945687535e-14 0.0004749444418)
(0.0001463061811 2.015023371e-14 0.0005053438858)
(0.0001462609441 2.014903001e-14 0.0005053438725)
(0.0001461269751 2.014556057e-14 0.0005053438332)
(0.0001459094183 2.013970588e-14 0.0005053437693)
(0.0001456166372 2.013189962e-14 0.0005053436834)
(0.0001452598791 2.012235864e-14 0.0005053435787)
(0.0001448528577 2.011151662e-14 0.0005053434592)
(0.0001444112175 2.009937355e-14 0.0005053433295)
(0.0001439519252 2.008723049e-14 0.0005053431947)
(0.0001434926328 2.007508743e-14 0.0005053430598)
(0.0001430509926 2.006381172e-14 0.0005053429302)
(0.0001426439712 2.00529697e-14 0.0005053428107)
(0.0001422872131 2.004342872e-14 0.0005053427059)
(0.000141994432 2.003562247e-14 0.00050534262)
(0.0001417768752 2.002976777e-14 0.0005053425561)
(0.0001416429062 2.002629833e-14 0.0005053425168)
(0.0001415976692 2.002510171e-14 0.0005053425035)
(0.0001416429062 2.002629833e-14 0.0005053425168)
(0.0001417768752 2.002976777e-14 0.0005053425561)
(0.000141994432 2.003562247e-14 0.00050534262)
(0.0001422872131 2.004342872e-14 0.0005053427059)
(0.0001426439712 2.00529697e-14 0.0005053428107)
(0.0001430509926 2.006381172e-14 0.0005053429302)
(0.0001434926328 2.007508743e-14 0.0005053430598)
(0.0001439519252 2.008723049e-14 0.0005053431947)
(0.0001444112175 2.009937355e-14 0.0005053433295)
(0.0001448528577 2.011151662e-14 0.0005053434592)
(0.0001452598791 2.012235864e-14 0.0005053435787)
(0.0001456166372 2.013189962e-14 0.0005053436834)
(0.0001459094183 2.013970588e-14 0.0005053437693)
(0.0001461269751 2.014556057e-14 0.0005053438332)
(0.0001462609441 2.014903001e-14 0.0005053438725)
(0.0001597601071 2.027671578e-14 0.0005260683814)
(0.0001597334272 2.027555641e-14 0.0005260683768)
(0.0001596544151 2.027197854e-14 0.0005260683632)
(0.0001595261047 2.026590701e-14 0.000526068341)
(0.0001593534285 2.025810075e-14 0.0005260683113)
(0.00015914302 2.024855977e-14 0.000526068275)
(0.0001589029673 2.023771775e-14 0.0005260682336)
(0.0001586424972 2.022600837e-14 0.0005260681886)
(0.0001583716161 2.02138653e-14 0.0005260681419)
(0.0001581007351 2.020172224e-14 0.0005260680952)
(0.0001578402649 2.019001286e-14 0.0005260680502)
(0.0001576002122 2.017917083e-14 0.0005260680088)
(0.0001573898038 2.016962986e-14 0.0005260679725)
(0.0001572171275 2.01618236e-14 0.0005260679428)
(0.0001570888171 2.015618575e-14 0.0005260679206)
(0.000157009805 2.015282472e-14 0.000526067907)
(0.0001569831252 2.015158744e-14 0.0005260679024)
(0.000157009805 2.015282472e-14 0.000526067907)
(0.0001570888171 2.015618575e-14 0.0005260679206)
(0.0001572171275 2.01618236e-14 0.0005260679428)
(0.0001573898038 2.016962986e-14 0.0005260679725)
(0.0001576002122 2.017917083e-14 0.0005260680088)
(0.0001578402649 2.019001286e-14 0.0005260680502)
(0.0001581007351 2.020172224e-14 0.0005260680952)
(0.0001583716161 2.02138653e-14 0.0005260681419)
(0.0001586424972 2.022600837e-14 0.0005260681886)
(0.0001589029673 2.023771775e-14 0.0005260682336)
(0.00015914302 2.024855977e-14 0.000526068275)
(0.0001593534285 2.025810075e-14 0.0005260683113)
(0.0001595261047 2.026590701e-14 0.000526068341)
(0.0001596544151 2.027197854e-14 0.0005260683632)
(0.0001597334272 2.027555641e-14 0.0005260683768)
(0.0001730088251 1.972665882e-14 0.0005349435985)
(0.0001730047173 1.972554065e-14 0.0005349435984)
(0.0001729925522 1.972185436e-14 0.0005349435981)
(0.000172972797 1.971643335e-14 0.0005349435977)
(0.0001729462109 1.970862709e-14 0.0005349435972)
(0.0001729138154 1.969908611e-14 0.0005349435965)
(0.0001728768557 1.968824409e-14 0.0005349435958)
(0.0001728367525 1.967610103e-14 0.000534943595)
(0.0001727950463 1.966395796e-14 0.0005349435941)
(0.0001727533402 1.96518149e-14 0.0005349435932)
(0.0001727132369 1.96405392e-14 0.0005349435924)
(0.0001726762773 1.962969717e-14 0.0005349435917)
(0.0001726438818 1.962015619e-14 0.000534943591)
(0.0001726172957 1.961234994e-14 0.0005349435905)
(0.0001725975404 1.960606157e-14 0.0005349435901)
(0.0001725853753 1.960280896e-14 0.0005349435898)
(0.0001725812676 1.960149911e-14 0.0005349435897)
(0.0001725853753 1.960280896e-14 0.0005349435898)
(0.0001725975404 1.960606157e-14 0.0005349435901)
(0.0001726172957 1.961234994e-14 0.0005349435905)
(0.0001726438818 1.962015619e-14 0.000534943591)
(0.0001726762773 1.962969717e-14 0.0005349435917)
(0.0001727132369 1.96405392e-14 0.0005349435924)
(0.0001727533402 1.96518149e-14 0.0005349435932)
(0.0001727950463 1.966395796e-14 0.0005349435941)
(0.0001728367525 1.967610103e-14 0.000534943595)
(0.0001728768557 1.968824409e-14 0.0005349435958)
(0.0001729138154 1.969908611e-14 0.0005349435965)
(0.0001729462109 1.970862709e-14 0.0005349435972)
(0.000172972797 1.971643335e-14 0.0005349435977)
(0.0001729925522 1.972185436e-14 0.0005349435981)
(0.0001730047173 1.972554065e-14 0.0005349435984)
(0.0001860240563 1.838373119e-14 0.000529518784)
(0.0001860470124 1.838264783e-14 0.0005295187806)
(0.0001861149967 1.837896155e-14 0.0005295187705)
(0.0001862253987 1.83733237e-14 0.0005295187541)
(0.0001863739743 1.836551744e-14 0.0005295187321)
(0.0001865550158 1.835597646e-14 0.0005295187052)
(0.0001867615641 1.834513444e-14 0.0005295186746)
(0.0001869856801 1.833342506e-14 0.0005295186413)
(0.000187218754 1.832128199e-14 0.0005295186067)
(0.0001874518279 1.830913893e-14 0.0005295185722)
(0.0001876759439 1.829742954e-14 0.0005295185389)
(0.0001878824922 1.828658752e-14 0.0005295185083)
(0.0001880635337 1.827704654e-14 0.0005295184814)
(0.0001882121093 1.826924029e-14 0.0005295184594)
(0.0001883225113 1.826316876e-14 0.000529518443)
(0.0001883904956 1.825969931e-14 0.0005295184329)
(0.0001884134517 1.825848346e-14 0.0005295184295)
(0.0001883904956 1.825969931e-14 0.0005295184329)
(0.0001883225113 1.826316876e-14 0.000529518443)
(0.0001882121093 1.826924029e-14 0.0005295184594)
(0.0001880635337 1.827704654e-14 0.0005295184814)
(0.0001878824922 1.828658752e-14 0.0005295185083)
(0.0001876759439 1.829742954e-14 0.0005295185389)
(0.0001874518279 1.830913893e-14 0.0005295185722)
(0.000187218754 1.832128199e-14 0.0005295186067)
(0.0001869856801 1.833342506e-14 0.0005295186413)
(0.0001867615641 1.834513444e-14 0.0005295186746)
(0.0001865550158 1.835597646e-14 0.0005295187052)
(0.0001863739743 1.836551744e-14 0.0005295187321)
(0.0001862253987 1.83733237e-14 0.0005295187541)
(0.0001861149967 1.837896155e-14 0.0005295187705)
(0.0001860470124 1.838264783e-14 0.0005295187806)
(0.0001987760733 1.612990531e-14 0.0005070743865)
(0.0001988310413 1.612869994e-14 0.0005070743669)
(0.0001989938285 1.612512207e-14 0.0005070743088)
(0.0001992581844 1.611948422e-14 0.0005070742143)
(0.0001996139462 1.611167796e-14 0.0005070740872)
(0.0002000474471 1.610213698e-14 0.0005070739324)
(0.0002005420237 1.609129496e-14 0.0005070737557)
(0.0002010786658 1.60791519e-14 0.000507073564)
(0.0002016367574 1.606700883e-14 0.0005070733647)
(0.000202194849 1.605486577e-14 0.0005070731653)
(0.0002027314912 1.604359007e-14 0.0005070729736)
(0.0002032260677 1.603274805e-14 0.0005070727969)
(0.0002036595686 1.602320707e-14 0.0005070726421)
(0.0002040153305 1.601540081e-14 0.000507072515)
(0.0002042796863 1.600932928e-14 0.0005070724206)
(0.0002044424735 1.600575141e-14 0.0005070723624)
(0.0002044974416 1.600448487e-14 0.0005070723428)
(0.0002044424735 1.600575141e-14 0.0005070723624)
(0.0002042796863 1.600932928e-14 0.0005070724206)
(0.0002040153305 1.601540081e-14 0.000507072515)
(0.0002036595686 1.602320707e-14 0.0005070726421)
(0.0002032260677 1.603274805e-14 0.0005070727969)
(0.0002027314912 1.604359007e-14 0.0005070729736)
(0.000202194849 1.605486577e-14 0.0005070731653)
(0.0002016367574 1.606700883e-14 0.0005070733647)
(0.0002010786658 1.60791519e-14 0.000507073564)
(0.0002005420237 1.609129496e-14 0.0005070737557)
(0.0002000474471 1.610213698e-14 0.0005070739324)
(0.0001996139462 1.611167796e-14 0.0005070740872)
(0.0001992581844 1.611948422e-14 0.0005070742143)
(0.0001989938285 1.612512207e-14 0.0005070743088)
(0.0001988310413 1.612869994e-14 0.0005070743669)
(0.0002112336581 1.285023216e-14 0.0004646384954)
(0.000211326006 1.284909679e-14 0.0004646384399)
(0.0002115994931 1.28454105e-14 0.0004646382757)
(0.0002120436184 1.283955581e-14 0.0004646380089)
(0.0002126413083 1.283131587e-14 0.00046463765)
(0.0002133696022 1.282220857e-14 0.0004646372126)
(0.0002142005047 1.281093287e-14 0.0004646367136)
(0.0002151020788 1.279965717e-14 0.0004646361721)
(0.0002160396884 1.27875141e-14 0.0004646356091)
(0.0002169772981 1.277537104e-14 0.000464635046)
(0.0002178788722 1.276322797e-14 0.0004646345045)
(0.0002187097747 1.275195227e-14 0.0004646340055)
(0.0002194380686 1.274284497e-14 0.0004646335681)
(0.0002200357585 1.273460504e-14 0.0004646332092)
(0.0002204798838 1.272918403e-14 0.0004646329424)
(0.0002207533709 1.272571458e-14 0.0004646327782)
(0.0002208457188 1.272451977e-14 0.0004646327227)
(0.0002207533709 1.272571458e-14 0.0004646327782)
(0.0002204798838 1.272918403e-14 0.0004646329424)
(0.0002200357585 1.273460504e-14 0.0004646332092)
(0.0002194380686 1.274284497e-14 0.0004646335681)
(0.0002187097747 1.275195227e-14 0.0004646340055)
(0.0002178788722 1.276322797e-14 0.0004646345045)
(0.0002169772981 1.277537104e-14 0.000464635046)
(0.0002160396884 1.27875141e-14 0.0004646356091)
(0.0002151020788 1.279965717e-14 0.0004646361721)
(0.0002142005047 1.281093287e-14 0.0004646367136)
(0.0002133696022 1.282220857e-14 0.0004646372126)
(0.0002126413083 1.283131587e-14 0.00046463765)
(0.0002120436184 1.283955581e-14 0.0004646380089)
(0.0002115994931 1.28454105e-14 0.0004646382757)
(0.000211326006 1.284909679e-14 0.0004646384399)
(0.0002233639645 8.438528902e-15 0.0003990125147)
(0.0002234994273 8.437369726e-15 0.0003990123954)
(0.0002239005988 8.433791859e-15 0.0003990120419)
(0.000224552075 8.427720327e-15 0.0003990114679)
(0.0002254288115 8.419914072e-15 0.0003990106954)
(0.0002264971276 8.410373092e-15 0.0003990097541)
(0.0002277159578 8.399531071e-15 0.0003990086801)
(0.0002290384543 8.387388006e-15 0.0003990075148)
(0.0002304138106 8.375244942e-15 0.000399006303)
(0.0002317891668 8.363101878e-15 0.0003990050911)
(0.0002331116633 8.350958813e-15 0.0003990039259)
(0.0002343304935 8.340116792e-15 0.0003990028519)
(0.0002353988096 8.330575813e-15 0.0003990019106)
(0.0002362755461 8.322769557e-15 0.0003990011381)
(0.0002369270223 8.317131706e-15 0.0003990005641)
(0.0002373281938 8.313553838e-15 0.0003990002106)
(0.0002374636566 8.31236458e-15 0.0003990000913)
(0.0002373281938 8.313553838e-15 0.0003990002106)
(0.0002369270223 8.317131706e-15 0.0003990005641)
(0.0002362755461 8.322769557e-15 0.0003990011381)
(0.0002353988096 8.330575813e-15 0.0003990019106)
(0.0002343304935 8.340116792e-15 0.0003990028519)
(0.0002331116633 8.350958813e-15 0.0003990039259)
(0.0002317891668 8.363101878e-15 0.0003990050911)
(0.0002304138106 8.375244942e-15 0.000399006303)
(0.0002290384543 8.387388006e-15 0.0003990075148)
(0.0002277159578 8.399531071e-15 0.0003990086801)
(0.0002264971276 8.410373092e-15 0.0003990097541)
(0.0002254288115 8.419914072e-15 0.0003990106954)
(0.0002245520751 8.427720327e-15 0.0003990114679)
(0.0002239005988 8.433791859e-15 0.0003990120419)
(0.0002234994273 8.437369726e-15 0.0003990123954)
(0.0002351322997 2.803869003e-15 0.0003068061723)
(0.0002353169109 2.802662616e-15 0.0003068059506)
(0.0002358636347 2.798976328e-15 0.0003068052941)
(0.0002367514784 2.793338477e-15 0.0003068042279)
(0.0002379463108 2.785098541e-15 0.000306802793)
(0.0002394022314 2.775557562e-15 0.0003068010446)
(0.0002410632754 2.76471554e-15 0.0003067990499)
(0.0002428655977 2.752138795e-15 0.0003067968855)
(0.0002447399581 2.73999573e-15 0.0003067946346)
(0.0002466143186 2.727852666e-15 0.0003067923837)
(0.0002484166409 2.716143283e-15 0.0003067902193)
(0.0002500776849 2.705301261e-15 0.0003067882246)
(0.0002515336055 2.695760282e-15 0.0003067864762)
(0.0002527284379 2.687520345e-15 0.0003067850413)
(0.0002536162816 2.681882494e-15 0.0003067839751)
(0.0002541630054 2.678196206e-15 0.0003067833186)
(0.0002543476166 2.677047603e-15 0.0003067830969)
(0.0002541630054 2.678196206e-15 0.0003067833186)
(0.0002536162816 2.681882494e-15 0.0003067839751)
(0.0002527284379 2.687520345e-15 0.0003067850413)
(0.0002515336055 2.695760282e-15 0.0003067864762)
(0.0002500776849 2.705301261e-15 0.0003067882246)
(0.0002484166409 2.716143283e-15 0.0003067902193)
(0.0002466143186 2.727852666e-15 0.0003067923837)
(0.0002447399581 2.73999573e-15 0.0003067946346)
(0.0002428655977 2.752138795e-15 0.0003067968855)
(0.0002410632754 2.76471554e-15 0.0003067990499)
(0.0002394022314 2.775557562e-15 0.0003068010446)
(0.0002379463108 2.785098541e-15 0.000306802793)
(0.0002367514784 2.793338477e-15 0.0003068042279)
(0.0002358636347 2.798976328e-15 0.0003068052941)
(0.0002353169109 2.802662616e-15 0.0003068059506)
(0.0002465018404 -4.122209784e-15 0.0001844816196)
(0.0002467418475 -4.123437702e-15 0.0001844812448)
(0.0002474526257 -4.12712399e-15 0.0001844801351)
(0.0002486068831 -4.132978682e-15 0.000184478333)
(0.0002501602468 -4.140784937e-15 0.0001844759077)
(0.0002520530428 -4.150325916e-15 0.0001844729526)
(0.0002542125134 -4.161601619e-15 0.000184469581)
(0.0002565556553 -4.173744683e-15 0.0001844659227)