/*--------------------------------*- C++ -*----------------------------------*\
| =========                 |                                                 |
| \\      /  F ield         | OpenFOAM: The Open Source CFD Toolbox           |
|  \\    /   O peration     | Version:  2312                                  |
|   \\  /    A nd           | Website:  www.openfoam.com                      |
|    \\/     M anipulation  |                                                 |
\*---------------------------------------------------------------------------*/
FoamFile
{
    version     2.0;
    format      ascii;
    arch        "LSB;label=32;scalar=64";
    class       surfaceVectorField;
    location    "0.11/beam";
    object      Q;
}
// * * * * * * * * * * * * * * * * * * * * * * * * * * * * * * * * * * * * * //

dimensions      [1 1 -2 0 0 0 0];

oriented        oriented;

internalField   nonuniform List<vector> 
59
(
(0.04913077682 2.90191778e-15 6.896420342e-05)
(0.04913074317 2.88877323e-15 6.871083778e-05)
(0.04913068735 2.861104874e-15 6.821207593e-05)
(0.04913060973 2.810460569e-15 6.735398894e-05)
(0.04913051083 2.725388951e-15 6.597874482e-05)
(0.04913039127 2.591828965e-15 6.388643396e-05)
(0.04913025175 2.393620543e-15 6.083762868e-05)
(0.04913009297 2.113141209e-15 5.655681541e-05)
(0.04912991563 1.732071928e-15 5.07368456e-05)
(0.04912972026 1.232292507e-15 4.304454301e-05)
(0.04912950716 5.969021129e-16 3.312758014e-05)
(0.04912927628 -1.886455892e-16 2.062269161e-05)
(0.049129027 -1.135311002e-15 5.165226867e-06)
(0.04912875803 -2.249168236e-15 -1.36000403e-05)
(0.04912846723 -3.530073528e-15 -3.600703025e-05)
(0.04912815143 -4.970350978e-15 -6.235570291e-05)
(0.04912780635 -6.553555341e-15 -9.289904785e-05)
(0.04912742653 -8.253382322e-15 -0.0001278302499)
(0.0491270053 -1.003280637e-14 -0.0001672706575)
(0.04912653498 -1.184353376e-14 -0.0002112592472)
(0.04912600704 -1.362586346e-14 -0.0002597443)
(0.0491254125 -1.530904984e-14 -0.000312577978)
(0.04912474247 -1.681209815e-14 -0.0003695077338)
(0.04912398833 -1.804619167e-14 -0.0004302116242)
(0.04912314325 -1.891538639e-14 -0.0004942304267)
(0.04912220159 -1.932175035e-14 -0.000561081678)
(0.04912116096 -1.916778554e-14 -0.0006301583273)
(0.04912002109 -1.836183049e-14 -0.0007008665847)
(0.04911878604 -1.682377125e-14 -0.0007725210848)
(0.04911746224 -1.448946721e-14 -0.0008444934266)
(0.04911606063 -1.131976989e-14 -0.0009161043952)
(0.04911459394 -7.302459197e-15 -0.000986774459)
(0.04911307863 -2.463665985e-15 -0.001055914011)
(0.04911153145 3.134732697e-15 -0.001123068416)
(0.04910997125 9.383495915e-15 -0.001187809272)
(0.04910841513 1.613573269e-14 -0.001249870503)
(0.04910688009 2.319877614e-14 -0.0013090464)
(0.04910537893 3.035378254e-14 -0.001365319668)
(0.04910392177 3.735581907e-14 -0.001418772458)
(0.04910251188 4.396538228e-14 -0.001469707896)
(0.04910114698 4.996080839e-14 -0.001518573267)
(0.04909981547 5.518101521e-14 -0.00156606792)
(0.049098498 5.955040506e-14 -0.001613058405)
(0.04909716512 6.312638008e-14 -0.001660645177)
(0.04909578086 6.612835918e-14 -0.001710019741)
(0.0490943038 6.897509697e-14 -0.001762439445)
(0.04909269565 7.229749574e-14 -0.001818957199)
(0.04909092823 7.69434223e-14 -0.001880260635)
(0.0490889995 8.394551914e-14 -0.001946247495)
(0.04908694646 9.44751368e-14 -0.002015784165)
(0.04908486507 1.097455381e-13 -0.002086278716)
(0.04908291885 1.309263444e-13 -0.002153660728)
(0.0490813425 1.590046081e-13 -0.00221243852)
(0.0490804152 1.947319372e-13 -0.002256515677)
(0.04908040497 2.385323423e-13 -0.002280456335)
(0.0490814668 2.906064183e-13 -0.002281627629)
(0.04908350995 3.509861697e-13 -0.002262647661)
(0.04908607695 4.198335728e-13 -0.002233501109)
(0.04908831847 4.975150851e-13 -0.002211682433)
)
;

boundaryField
{
    left
    {
        type            calculated;
        value           uniform (-0.04913078807 -6.814695667e-12 -6.904099458e-05);
    }
    right
    {
        type            calculated;
        value           uniform (0.04908922669 -6.226317395e-12 -0.002217545468);
    }
    beam
    {
        type            empty;
        value           nonuniform List<vector> 0();
    }
}


// ************************************************************************* //
