/*--------------------------------*- C++ -*----------------------------------*\
| =========                 |                                                 |
| \\      /  F ield         | OpenFOAM: The Open Source CFD Toolbox           |
|  \\    /   O peration     | Version:  2312                                  |
|   \\  /    A nd           | Website:  www.openfoam.com                      |
|    \\/     M anipulation  |                                                 |
\*---------------------------------------------------------------------------*/
FoamFile
{
    version     2.0;
    format      ascii;
    arch        "LSB;label=32;scalar=64";
    class       volVectorField;
    location    "0.11/beam";
    object      Theta;
}
// * * * * * * * * * * * * * * * * * * * * * * * * * * * * * * * * * * * * * //

dimensions      [0 0 0 0 0 0 0];

internalField   nonuniform List<vector> 
60
(
(9.974810576e-15 -0.00139597687 5.396043206e-14)
(9.974644309e-15 -0.001385152597 5.35125282e-14)
(9.974335046e-15 -0.001366304877 5.255768003e-14)
(9.973944294e-15 -0.001335533161 5.098345652e-14)
(9.973550211e-15 -0.001291615754 4.862645695e-14)
(9.973242395e-15 -0.001230450314 4.527891895e-14)
(9.973109423e-15 -0.001148457672 4.069875859e-14)
(9.973231912e-15 -0.001040647402 3.461784867e-14)
(9.973671033e-15 -0.0009019058851 2.675971362e-14)
(9.974468591e-15 -0.0007263863139 1.685135241e-14)
(9.975647708e-15 -0.0005080665245 4.640954274e-15)
(9.977214077e-15 -0.0002406407672 -1.00786844e-14)
(9.97916818e-15 8.215778918e-05 -2.745329843e-14)
(9.981514603e-15 0.0004664626567 -4.754412791e-14)
(9.984271906e-15 0.0009180181443 -7.030609861e-14)
(9.987479541e-15 0.001442002207 -9.556609536e-14)
(9.991197764e-15 0.002042793849 -1.230034708e-13)
(9.995493454e-15 0.002723777379 -1.521340911e-13)
(1.000043143e-14 0.003487142308 -1.822919982e-13)
(1.000601482e-14 0.004333719063 -2.126290773e-13)
(1.001214097e-14 0.005262842651 -2.421093666e-13)
(1.001852621e-14 0.006272264744 -2.695161306e-13)
(1.00246079e-14 0.007358052616 -2.9346964e-13)
(1.002943777e-14 0.008514862168 -3.124568085e-13)
(1.003157897e-14 0.00973565414 -3.248652042e-13)
(1.002895528e-14 0.01101208413 -3.290334651e-13)
(1.001878281e-14 0.01233465138 -3.233228278e-13)
(9.997419055e-15 0.0136929606 -3.061709095e-13)
(9.960361935e-15 0.01507602704 -2.762059994e-13)
(9.902148381e-15 0.01647261345 -2.322788116e-13)
(9.817438404e-15 0.01787158565 -1.7358508e-13)
(9.697324216e-15 0.01926227404 -9.983519779e-14)
(9.535034373e-15 0.02063483 -1.115385477e-14)
(9.322400114e-15 0.02198056793 9.178355593e-14)
(9.051260643e-15 0.02329228821 2.076980674e-13)
(8.713589037e-15 0.02456457661 3.34786675e-13)
(8.30206253e-15 0.02579407908 4.707678915e-13)
(7.810084764e-15 0.02697974522 6.130458481e-13)
(7.232172696e-15 0.02812303065 7.589161757e-13)
(6.563488789e-15 0.02922803229 9.058694525e-13)
(5.799544615e-15 0.03030151676 1.051958685e-12)
(4.934709319e-15 0.03135277817 1.196238404e-12)
(3.960754017e-15 0.03239324147 1.339239835e-12)
(2.864185163e-15 0.03343571397 1.483453011e-12)
(1.62408457e-15 0.03449318223 1.633759337e-12)
(2.09283807e-16 0.03557709481 1.797749281e-12)
(-1.423177628e-15 0.03669511231 1.985849042e-12)
(-3.330740383e-15 0.03784847907 2.211169359e-12)
(-5.589417864e-15 0.03902926168 2.488997634e-12)
(-8.30594884e-15 0.04021806932 2.835860247e-12)
(-1.164171377e-14 0.04138286348 3.268103768e-12)
(-1.585413637e-14 0.04248003444 3.799962309e-12)
(-2.13423144e-14 0.04345827211 4.441085221e-12)
(-2.865922321e-14 0.04426650403 5.193481025e-12)
(-3.839314209e-14 0.04486458804 6.047740255e-12)
(-5.077228826e-14 0.04523693972 6.978246641e-12)
(-6.481327602e-14 0.04540237513 7.936749864e-12)
(-7.695929769e-14 0.04541937673 8.843314729e-12)
(-7.950636572e-14 0.04537099196 9.573053451e-12)
(-5.989393958e-14 0.0453378948 9.936573631e-12)
)
;

boundaryField
{
    left
    {
        type            momentBeamRotationNR;
        value           uniform (9.974810576e-15 -0.00139597687 5.396043206e-14);
        momentSeries    
{
        file            "$FOAM_CASE/constant/beam/timeVsMoment";
        outOfBounds     clamp;
}
        moment          uniform (0 0 0);
    }
    right
    {
        type            momentBeamRotationNR;
        value           uniform (-5.989393958e-14 0.0453378948 9.936573631e-12);
        momentSeries    
{
        file            "$FOAM_CASE/constant/beam/timeVsMoment";
        outOfBounds     clamp;
}
        moment          uniform (0 0 0);
    }
    beam
    {
        type            empty;
    }
}


// ************************************************************************* //
