/*--------------------------------*- C++ -*----------------------------------*\
| =========                 |                                                 |
| \\      /  F ield         | OpenFOAM: The Open Source CFD Toolbox           |
|  \\    /   O peration     | Version:  2312                                  |
|   \\  /    A nd           | Website:  www.openfoam.com                      |
|    \\/     M anipulation  |                                                 |
\*---------------------------------------------------------------------------*/
FoamFile
{
    version     2.0;
    format      ascii;
    arch        "LSB;label=32;scalar=64";
    class       volVectorField;
    location    "0.11/beam";
    object      W;
}
// * * * * * * * * * * * * * * * * * * * * * * * * * * * * * * * * * * * * * //

dimensions      [0 1 0 0 0 0 0];

internalField   nonuniform List<vector> 
60
(
(7.192322855e-06 2.24038898e-15 2.996574281e-05)
(2.157722263e-05 4.709785883e-15 8.970829631e-05)
(3.596290172e-05 7.143775479e-15 0.0001488649913)
(5.034994304e-05 9.51459309e-15 0.0002069819807)
(6.473901839e-05 1.178843461e-14 0.0002635114712)
(7.913089926e-05 1.392337996e-14 0.0003177761094)
(9.352644231e-05 1.586769118e-14 0.0003689354069)
(0.0001079265338 1.755854416e-14 0.0004159549159)
(0.0001223319785 1.892131736e-14 0.0004575789352)
(0.0001367433148 1.98695888e-14 0.0004923075403)
(0.0001511605355 2.030574662e-14 0.000518378849)
(0.0001655826967 2.01225566e-14 0.0005337574348)
(0.000180007396 1.920560132e-14 0.0005361297534)
(0.000194430112 1.743661333e-14 0.0005229074601)
(0.0002088434028 1.469777685e-14 0.0004912392692)
(0.0002232359741 1.087697507e-14 0.0004380319489)
(0.000237591647 5.873918408e-15 0.0003599806571)
(0.0002518882693 -3.930018022e-16 0.0002536086121)
(0.0002660966344 -7.979148849e-15 0.0001153156243)
(0.00028017949 -1.690576404e-14 -5.856535073e-05)
(0.0002940907268 -2.715203426e-14 -0.0002717049767)
(0.0003077748484 -3.864732072e-14 -0.00052770934)
(0.0003211660574 -5.126336167e-14 -0.0008300318347)
(0.0003341916215 -6.481105795e-14 -0.001181964566)
(0.0003467679566 -7.90321931e-14 -0.001586489837)
(0.0003588053191 -9.359944849e-14 -0.002046243833)
(0.0003702084284 -1.081165032e-13 -0.002563492295)
(0.0003808792537 -1.221213798e-13 -0.003140034268)
(0.0003907189658 -1.350931398e-13 -0.003777221902)
(0.0003996313752 -1.464633146e-13 -0.004475887748)
(0.0004075248559 -1.556280787e-13 -0.005236396537)
(0.0004143157346 -1.619705372e-13 -0.00605860219)
(0.0004199294544 -1.648800308e-13 -0.006941932027)
(0.0004243031584 -1.637767491e-13 -0.007885375364)
(0.0004273854499 -1.581348857e-13 -0.008887596899)
(0.0004291375628 -1.475113479e-13 -0.009946955547)
(0.0004295313183 -1.315637355e-13 -0.01106164194)
(0.0004285485489 -1.100720161e-13 -0.01222972427)
(0.0004261771614 -8.294248422e-14 -0.01344930394)
(0.0004224088284 -5.021022801e-14 -0.01471858207)
(0.0004172334538 -1.201697081e-14 -0.01603602283)
(0.000410635667 3.141837239e-14 -0.0174004242)
(0.0004025886303 7.985815959e-14 -0.01881106414)
(0.0003930508072 1.331147538e-13 -0.02026773608)
(0.0003819612103 1.911466304e-13 -0.0217708253)
(0.0003692394301 2.541598981e-13 -0.02332123689)
(0.0003547860943 3.227259536e-13 -0.02492032036)
(0.0003384908469 3.978869258e-13 -0.02656960028)
(0.0003202429502 4.812555276e-13 -0.0282704759)
(0.0002999516465 5.750709478e-13 -0.03002371843)
(0.0002775689042 6.822218594e-13 -0.03182898472)
(0.0002531191011 8.061851785e-13 -0.03368423401)
(0.0002267228353 9.509095891e-13 -0.0355853481)
(0.0001986138729 1.120575299e-12 -0.03752592201)
(0.0001691322705 1.319285561e-12 -0.0394975515)
(0.0001386921161 1.550589426e-12 -0.04149058272)
(0.0001077176768 1.816898995e-12 -0.043495447)
(7.656385361e-05 2.11862533e-12 -0.04550427369)
(4.544496164e-05 2.453029797e-12 -0.04751233888)
(1.44116821e-05 2.812461088e-12 -0.04951852491)
)
;

boundaryField
{
    left
    {
        type            fixedValue;
        value           uniform (0 0 0);
    }
    right
    {
        type            fixedValue;
        value           uniform (-1.088834114e-06 2.996133753e-12 -0.05052134068);
    }
    beam
    {
        type            empty;
    }
}


// ************************************************************************* //
