/*--------------------------------*- C++ -*----------------------------------*\
| =========                 |                                                 |
| \\      /  F ield         | OpenFOAM: The Open Source CFD Toolbox           |
|  \\    /   O peration     | Version:  2312                                  |
|   \\  /    A nd           | Website:  www.openfoam.com                      |
|    \\/     M anipulation  |                                                 |
\*---------------------------------------------------------------------------*/
FoamFile
{
    version     2.0;
    format      ascii;
    arch        "LSB;label=32;scalar=64";
    class       surfaceVectorField;
    location    "0.07/beam";
    object      Gamma;
}
// * * * * * * * * * * * * * * * * * * * * * * * * * * * * * * * * * * * * * //

dimensions      [0 0 0 0 0 0 0];

oriented        oriented;

internalField   nonuniform List<vector> 
59
(
(9.671399721e-05 1.912845213e-19 2.637858253e-09)
(9.671296135e-05 1.778173186e-19 2.136264154e-09)
(9.671123479e-05 1.550148531e-19 1.305808579e-09)
(9.670881734e-05 1.223768522e-19 1.555294086e-10)
(9.670570872e-05 7.928357733e-20 -1.300472472e-09)
(9.670190859e-05 2.502388581e-20 -3.041653368e-09)
(9.669741652e-05 -4.098638609e-20 -5.039414859e-09)
(9.669223198e-05 -1.192220762e-19 -7.255360906e-09)
(9.668635437e-05 -2.097866399e-19 -9.639428887e-09)
(9.6679783e-05 -3.123637507e-19 -1.212818068e-08)
(9.66725171e-05 -4.260589939e-19 -1.464335296e-08)
(9.666455581e-05 -5.492026342e-19 -1.709076035e-08)
(9.665589821e-05 -6.791848632e-19 -1.93598897e-08)
(9.664654334e-05 -8.12346134e-19 -2.132413255e-08)
(9.663649018e-05 -9.43837398e-19 -2.284210967e-08)
(9.662573768e-05 -1.067547136e-18 -2.375995846e-08)
(9.661428479e-05 -1.175997324e-18 -2.391494144e-08)
(9.660213045e-05 -1.260530841e-18 -2.314027341e-08)
(9.658927359e-05 -1.311301742e-18 -2.12712891e-08)
(9.657571314e-05 -1.317230966e-18 -1.815276193e-08)
(9.656144798e-05 -1.266512321e-18 -1.364729122e-08)
(9.654647691e-05 -1.146833645e-18 -7.644329933e-09)
(9.653080039e-05 -9.458036698e-19 -7.031034269e-11)
(9.65144114e-05 -6.513577062e-19 9.107449555e-09)
(9.649731544e-05 -2.526601067e-19 1.986251027e-08)
(9.647950249e-05 2.598104585e-19 3.212053998e-08)
(9.646097783e-05 8.928166453e-19 4.573824391e-08)
(9.64417298e-05 1.650603106e-18 6.052901606e-08)
(9.642176331e-05 2.533026076e-18 7.624730901e-08)
(9.640106513e-05 3.533705847e-18 9.263158679e-08)
(9.637964011e-05 4.64544707e-18 1.093990701e-07)
(9.635747393e-05 5.85649875e-18 1.263060377e-07)
(9.633457204e-05 7.143056065e-18 1.431536379e-07)
(9.63109198e-05 8.478780747e-18 1.598582158e-07)
(9.628652393e-05 9.829614831e-18 1.764587737e-07)
(9.626136984e-05 1.115597249e-17 1.9317786e-07)
(9.62354655e-05 1.240995448e-17 2.104047631e-07)
(9.620879576e-05 1.353730121e-17 2.28712256e-07)
(9.618136873e-05 1.44744204e-17 2.487706013e-07)
(9.615316737e-05 1.514942295e-17 2.712739605e-07)
(9.612419899e-05 1.547916511e-17 2.967313366e-07)
(9.609444512e-05 1.536907587e-17 3.252642901e-07)
(9.60639159e-05 1.471148736e-17 3.562465181e-07)
(9.60326006e-05 1.338521762e-17 3.879871627e-07)
(9.60005303e-05 1.125881233e-17 4.172869384e-07)
(9.596773282e-05 8.193792058e-18 4.39148737e-07)
(9.593430645e-05 4.060419889e-18 4.465171941e-07)
(9.590037869e-05 -1.247089859e-18 4.303731221e-07)
(9.586618081e-05 -7.769538708e-18 3.802157676e-07)
(9.583198612e-05 -1.544261281e-17 2.851465002e-07)
(9.579813846e-05 -2.401504124e-17 1.3591038e-07)
(9.576490714e-05 -3.296983253e-17 -7.2342392e-08)
(9.573240326e-05 -4.139314365e-17 -3.357703984e-07)
(9.570033382e-05 -4.785535975e-17 -6.372401567e-07)
(9.566790116e-05 -5.025316604e-17 -9.403058748e-07)
(9.563373826e-05 -4.568897285e-17 -1.18448221e-06)
(9.559626051e-05 -3.038272612e-17 -1.281226562e-06)
(9.555423361e-05 3.247322871e-19 -1.114930098e-06)
(9.550752899e-05 5.175585458e-17 -5.507710722e-07)
)
;

boundaryField
{
    left
    {
        type            calculated;
        value           uniform (-9.671434253e-05 -4.517241483e-14 -2.805632034e-09);
    }
    right
    {
        type            calculated;
        value           uniform (9.545696069e-05 -4.503761892e-14 5.458677893e-07);
    }
    beam
    {
        type            empty;
        value           nonuniform List<vector> 0();
    }
}


// ************************************************************************* //
