/*--------------------------------*- C++ -*----------------------------------*\
| =========                 |                                                 |
| \\      /  F ield         | OpenFOAM: The Open Source CFD Toolbox           |
|  \\    /   O peration     | Version:  2312                                  |
|   \\  /    A nd           | Website:  www.openfoam.com                      |
|    \\/     M anipulation  |                                                 |
\*---------------------------------------------------------------------------*/
FoamFile
{
    version     2.0;
    format      ascii;
    arch        "LSB;label=32;scalar=64";
    class       surfaceVectorField;
    location    "0.07/beam";
    object      K;
}
// * * * * * * * * * * * * * * * * * * * * * * * * * * * * * * * * * * * * * //

dimensions      [0 -1 0 0 0 0 0];

oriented        oriented;

internalField   nonuniform List<vector> 
59
(
(2.016175034e-19 3.013645435e-05 -2.142431829e-15)
(4.031885815e-19 5.656820777e-05 -4.185595902e-15)
(6.046600996e-19 7.562705629e-05 -6.028006011e-15)
(8.059973317e-19 8.372249734e-05 -7.563608614e-15)
(1.007161797e-18 7.739207172e-05 -8.680028954e-15)
(1.208131839e-18 5.336504025e-05 -9.257645215e-15)
(1.408872973e-18 8.642621237e-06 -9.169591914e-15)
(1.609341489e-18 -5.940320104e-05 -8.283232454e-15)
(1.809476687e-18 -0.0001529108738 -6.46261675e-15)
(2.009249415e-18 -0.0002733906668 -3.572891883e-15)
(2.208525031e-18 -0.0004215685767 5.139374002e-16)
(2.407170432e-18 -0.0005972161336 5.911717119e-15)
(2.604983274e-18 -0.0007989718857 1.27105796e-14)
(2.80173169e-18 -0.001024161922 2.096600628e-14)
(2.997163137e-18 -0.00126862901 3.068637182e-14)
(3.19097347e-18 -0.001526581717 4.181941573e-14)
(3.383485282e-18 -0.001790476171 5.423759457e-14)
(3.57392913e-18 -0.002050944504 6.772412016e-14)
(3.761527392e-18 -0.002296784151 8.19598036e-14)
(3.946861527e-18 -0.002515021804 9.650958234e-14)
(4.129854861e-18 -0.002691064298 1.108117502e-13)
(4.310427145e-18 -0.002808943505 1.241707078e-13)
(4.488945458e-18 -0.002851676815 1.357548323e-13)
(4.66529618e-18 -0.002801693366 1.445971709e-13)
(4.839148214e-18 -0.002641382799 1.496032769e-13)
(5.009653592e-18 -0.00235369485 1.495663433e-13)
(5.174852159e-18 -0.001922783797 1.43189461e-13)
(5.331566321e-18 -0.001334630018 1.291147634e-13)
(5.474454874e-18 -0.0005776061154 1.059616383e-13)
(5.593972365e-18 0.0003571082511 7.238558206e-14)
(5.696236684e-18 0.001475320023 2.711722842e-14)
(5.74471164e-18 0.002779921333 -3.100792072e-14)
(5.740526327e-18 0.004271353741 -1.029575818e-13)
(5.67727281e-18 0.005948494379 -1.894219519e-13)
(5.558691335e-18 0.00780997227 -2.907569531e-13)
(5.406736212e-18 0.009855863696 -4.069109031e-13)
(5.273560177e-18 0.01208963115 -5.373478777e-13)
(5.253892907e-18 0.01452006292 -6.809665562e-13)
(5.498950027e-18 0.0171628289 -8.360133178e-13)
(6.226633114e-18 0.02004115421 -9.999847122e-13)
(7.725193323e-18 0.02318492783 -1.16951923e-12)
(1.03473116e-17 0.02662753537 -1.340271771e-12)
(1.447715255e-17 0.03039957637 -1.506777849e-12)
(2.049981437e-17 0.03451883417 -1.662306336e-12)
(2.872114498e-17 0.03897603412 -1.798727693e-12)
(3.931999612e-17 0.04371654278 -1.906418185e-12)
(5.225783954e-17 0.04861901963 -1.974269143e-12)
(6.727625407e-17 0.05347314886 -1.989867745e-12)
(8.386326631e-17 0.05796055611 -1.939988885e-12)
(1.013620866e-16 0.06164439153 -1.811536287e-12)
(1.189872865e-16 0.06397620199 -1.593158562e-12)
(1.359011617e-16 0.06432938923 -1.277754217e-12)
(1.50993426e-16 0.06207166977 -8.661384239e-13)
(1.624999747e-16 0.05668673273 -3.720938826e-13)
(1.673542476e-16 0.04795469377 1.710455288e-13)
(1.60742137e-16 0.03619206151 7.022693207e-13)
(1.36844482e-16 0.02254015121 1.12360797e-12)
(9.254872135e-17 0.009270303761 1.290380433e-12)
(3.602971578e-17 4.025635594e-05 1.002651699e-12)
)
;

boundaryField
{
    left
    {
        type            calculated;
        value           uniform (-9.236735617e-35 -9.193305853e-35 6.395069134e-34);
    }
    right
    {
        type            calculated;
        value           uniform (-1.457646815e-32 4.064174419e-29 -6.512753897e-31);
    }
    beam
    {
        type            empty;
        value           nonuniform List<vector> 0();
    }
}


// ************************************************************************* //
