/*--------------------------------*- C++ -*----------------------------------*\
| =========                 |                                                 |
| \\      /  F ield         | OpenFOAM: The Open Source CFD Toolbox           |
|  \\    /   O peration     | Version:  2312                                  |
|   \\  /    A nd           | Website:  www.openfoam.com                      |
|    \\/     M anipulation  |                                                 |
\*---------------------------------------------------------------------------*/
FoamFile
{
    version     2.0;
    format      ascii;
    arch        "LSB;label=32;scalar=64";
    class       surfaceVectorField;
    location    "0.07/beam";
    object      M;
}
// * * * * * * * * * * * * * * * * * * * * * * * * * * * * * * * * * * * * * //

dimensions      [1 2 -2 0 0 0 0];

oriented        oriented;

internalField   nonuniform List<vector> 
59
(
(1.7490899e-22 1.817788735e-08 -1.29218733e-18)
(3.495028753e-22 3.412115097e-08 -2.524509734e-18)
(5.229919227e-22 4.561718158e-08 -3.635764031e-18)
(6.936947601e-22 5.050023828e-08 -4.561991832e-18)
(8.586961626e-22 4.668181417e-08 -5.235421471e-18)
(1.013595396e-21 3.218904517e-08 -5.583909329e-18)
(1.152327922e-21 5.213108134e-09 -5.530941634e-18)
(1.26698436e-21 -3.583117922e-08 -4.996522356e-18)
(1.347602701e-21 -9.223369833e-08 -3.898655228e-18)
(1.381753765e-21 -1.649054227e-07 -2.156003747e-18)
(1.353902566e-21 -2.542842635e-07 3.086346822e-19)
(1.244439672e-21 -3.602324107e-07 3.563931128e-18)
(1.028250974e-21 -4.819286559e-07 7.664256558e-18)
(6.729509568e-22 -6.177601333e-07 1.264308525e-17)
(1.36880607e-22 -7.652192579e-07 1.850548216e-17)
(-6.328376196e-22 -9.208127196e-07 2.521994322e-17)
(-1.701782676e-21 -1.07999016e-06 3.270956043e-17)
(-3.148636202e-21 -1.237101012e-06 4.08436005e-17)
(-5.063929422e-21 -1.385388045e-06 4.942956939e-17)
(-7.546345497e-21 -1.517025942e-06 5.820508539e-17)
(-1.069581529e-20 -1.623212309e-06 6.683138233e-17)
(-1.46029961e-20 -1.694315397e-06 7.488893605e-17)
(-1.93357136e-20 -1.720091531e-06 8.187617797e-17)
(-2.492224277e-20 -1.689942214e-06 8.720991249e-17)
(-3.133426359e-20 -1.593245125e-06 9.023004146e-17)
(-3.847303579e-20 -1.419715782e-06 9.020869067e-17)
(-4.616471595e-20 -1.159796268e-06 8.636363387e-17)
(-5.417104845e-20 -8.050301421e-07 7.787587007e-17)
(-6.222669631e-20 -3.484039223e-07 6.391267063e-17)
(-7.013123199e-20 2.154026976e-07 4.366307794e-17)
(-7.784678467e-20 8.898923833e-07 1.63614463e-17)
(-8.561262793e-20 1.676809629e-06 -1.869462474e-17)
(-9.417410336e-20 2.576420778e-06 -6.208884799e-17)
(-1.049962251e-19 3.58804853e-06 -1.142375457e-16)
(-1.203721747e-19 4.710865934e-06 -1.753554111e-16)
(-1.433907771e-19 5.944918999e-06 -2.454112702e-16)
(-1.775956012e-19 7.292296258e-06 -3.240818487e-16)
(-2.26154695e-19 8.758298672e-06 -4.107028129e-16)
(-2.903320237e-19 1.035237811e-05 -5.042163469e-16)
(-3.670777935e-19 1.208854364e-05 -6.031123269e-16)
(-4.456412495e-19 1.398482388e-05 -7.053630532e-16)
(-5.032759926e-19 1.606135655e-05 -8.083475683e-16)
(-5.004316261e-19 1.833659887e-05 -9.08769809e-16)
(-3.761376667e-19 2.082127751e-05 -1.002569884e-15)
(-4.485115996e-20 2.350979812e-05 -1.08484473e-15)
(6.037653581e-19 2.636920657e-05 -1.1497905e-15)
(1.700192369e-18 2.932631197e-05 -1.190708331e-15)
(3.384107037e-18 3.225425477e-05 -1.200113533e-15)
(5.785924356e-18 3.4960996e-05 -1.170032339e-15)
(9.001181325e-18 3.718303395e-05 -1.092569479e-15)
(1.305888236e-17 3.858954937e-05 -9.608826458e-16)
(1.788600825e-17 3.880258697e-05 -7.70692844e-16)
(2.326937457e-17 3.74407622e-05 -5.224950872e-16)
(2.881262118e-17 3.419264357e-05 -2.246033236e-16)
(3.388094732e-17 2.892559992e-05 1.028810878e-16)
(3.751904253e-17 2.183054481e-05 4.231725111e-16)
(3.832951508e-17 1.359590365e-05 6.772083282e-16)
(3.431230037e-17 5.591717445e-06 7.777743999e-16)
(2.271394807e-17 2.428207031e-08 6.043595447e-16)
)
;

boundaryField
{
    left
    {
        type            calculated;
        value           uniform (-1.113960057e-37 -5.545273384e-38 3.857512069e-37);
    }
    right
    {
        type            calculated;
        value           uniform (-3.228442478e-35 2.451453111e-32 -3.919060569e-34);
    }
    beam
    {
        type            empty;
        value           nonuniform List<vector> 0();
    }
}


// ************************************************************************* //
