/*--------------------------------*- C++ -*----------------------------------*\
| =========                 |                                                 |
| \\      /  F ield         | OpenFOAM: The Open Source CFD Toolbox           |
|  \\    /   O peration     | Version:  2312                                  |
|   \\  /    A nd           | Website:  www.openfoam.com                      |
|    \\/     M anipulation  |                                                 |
\*---------------------------------------------------------------------------*/
FoamFile
{
    version     2.0;
    format      ascii;
    arch        "LSB;label=32;scalar=64";
    class       pointVectorField;
    location    "0.07/beam";
    object      pointW;
}
// * * * * * * * * * * * * * * * * * * * * * * * * * * * * * * * * * * * * * //

dimensions      [0 1 0 0 0 0 0];

internalField   nonuniform List<vector> 
1952
(
(-3.442874454e-07 2.147127397e-17 1.115044689e-11)
(-3.376719621e-07 2.103352215e-17 1.093618685e-11)
(-3.18080285e-07 1.973247954e-17 1.030166664e-11)
(-2.862646822e-07 1.778091563e-17 9.27125e-12)
(-2.434482348e-07 1.517883041e-17 7.88454935e-12)
(-1.91275776e-07 1.214306433e-17 6.194835877e-12)
(-1.317527803e-07 8.239936511e-18 4.267061097e-12)
(-6.71671238e-08 4.33680869e-18 2.175322422e-12)
(-9.443315516e-18 0 -2.147046127e-17)
(6.716712378e-08 -4.33680869e-18 -2.175364489e-12)
(1.317527803e-07 -8.239936511e-18 -4.267100779e-12)
(1.91275776e-07 -1.214306433e-17 -6.194871439e-12)
(2.434482348e-07 -1.517883041e-17 -7.884579708e-12)
(2.862646822e-07 -1.778091563e-17 -9.271273853e-12)
(3.18080285e-07 -1.973247954e-17 -1.030168312e-11)
(3.376719621e-07 -2.103352215e-17 -1.093619553e-11)
(3.442874454e-07 -2.147127397e-17 -1.115044689e-11)
(3.376719621e-07 -2.103352215e-17 -1.093618685e-11)
(3.18080285e-07 -1.973247954e-17 -1.030166664e-11)
(2.862646822e-07 -1.778091563e-17 -9.27125e-12)
(2.434482348e-07 -1.517883041e-17 -7.88454935e-12)
(1.91275776e-07 -1.214306433e-17 -6.194835877e-12)
(1.317527803e-07 -8.239936511e-18 -4.267061097e-12)
(6.71671238e-08 -4.33680869e-18 -2.175322422e-12)
(9.443348175e-18 0 2.147046127e-17)
(-6.716712378e-08 4.33680869e-18 2.175364489e-12)
(-1.317527803e-07 8.239936511e-18 4.267100779e-12)
(-1.91275776e-07 1.214306433e-17 6.194871439e-12)
(-2.434482348e-07 1.517883041e-17 7.884579708e-12)
(-2.862646822e-07 1.778091563e-17 9.271273853e-12)
(-3.18080285e-07 1.973247954e-17 1.030168312e-11)
(-3.376719621e-07 2.103352215e-17 1.093619553e-11)
(3.934859041e-06 9.159170088e-16 -3.825838523e-06)
(3.941525801e-06 9.153918942e-16 -3.825838746e-06)
(3.961269334e-06 9.141992718e-16 -3.825839404e-06)
(3.993331541e-06 9.120308675e-16 -3.825840474e-06)
(4.03647986e-06 9.094287823e-16 -3.825841913e-06)
(4.08905671e-06 9.063930162e-16 -3.825843667e-06)
(4.149041071e-06 9.024898884e-16 -3.825845668e-06)
(4.214127334e-06 8.985867606e-16 -3.82584784e-06)
(4.281815073e-06 8.942499519e-16 -3.825850098e-06)
(4.349502812e-06 8.899131432e-16 -3.825852356e-06)
(4.414589075e-06 8.860100154e-16 -3.825854527e-06)
(4.474573436e-06 8.821068875e-16 -3.825856528e-06)
(4.527150285e-06 8.790711215e-16 -3.825858282e-06)
(4.570298605e-06 8.764690362e-16 -3.825859722e-06)
(4.602360812e-06 8.747343128e-16 -3.825860791e-06)
(4.622104345e-06 8.733248499e-16 -3.82586145e-06)
(4.628771105e-06 8.729742503e-16 -3.825861672e-06)
(4.622104345e-06 8.733248499e-16 -3.82586145e-06)
(4.602360812e-06 8.747343128e-16 -3.825860791e-06)
(4.570298605e-06 8.764690362e-16 -3.825859722e-06)
(4.527150285e-06 8.790711215e-16 -3.825858282e-06)
(4.474573436e-06 8.821068875e-16 -3.825856528e-06)
(4.414589075e-06 8.860100154e-16 -3.825854527e-06)
(4.349502812e-06 8.899131432e-16 -3.825852356e-06)
(4.281815073e-06 8.942499519e-16 -3.825850098e-06)
(4.214127334e-06 8.985867606e-16 -3.82584784e-06)
(4.149041071e-06 9.024898884e-16 -3.825845668e-06)
(4.08905671e-06 9.063930162e-16 -3.825843667e-06)
(4.03647986e-06 9.094287823e-16 -3.825841913e-06)
(3.993331541e-06 9.120308675e-16 -3.825840474e-06)
(3.961269334e-06 9.141992718e-16 -3.825839404e-06)
(3.941525801e-06 9.153918942e-16 -3.825838746e-06)
(8.208963438e-06 8.062168182e-16 -7.708967825e-06)
(8.215777723e-06 8.057790546e-16 -7.708968065e-06)
(8.235958151e-06 8.04478012e-16 -7.708968777e-06)
(8.268729847e-06 8.027432885e-16 -7.708969933e-06)
(8.312832975e-06 8.001412033e-16 -7.708971489e-06)
(8.366573272e-06 7.971054372e-16 -7.708973385e-06)
(8.427884997e-06 7.932023094e-16 -7.708975548e-06)
(8.494411522e-06 7.884318198e-16 -7.708977894e-06)
(8.56359709e-06 7.840950111e-16 -7.708980335e-06)
(8.632782657e-06 7.797582025e-16 -7.708982776e-06)
(8.699309182e-06 7.767224364e-16 -7.708985123e-06)
(8.760620907e-06 7.728193085e-16 -7.708987285e-06)
(8.814361204e-06 7.697835425e-16 -7.708989181e-06)
(8.858464332e-06 7.671814573e-16 -7.708990737e-06)
(8.891236028e-06 7.650130529e-16 -7.708991893e-06)
(8.911416456e-06 7.637120103e-16 -7.708992605e-06)
(8.918230741e-06 7.632737517e-16 -7.708992845e-06)
(8.911416456e-06 7.637120103e-16 -7.708992605e-06)
(8.891236028e-06 7.650130529e-16 -7.708991893e-06)
(8.858464332e-06 7.671814573e-16 -7.708990737e-06)
(8.814361204e-06 7.697835425e-16 -7.708989181e-06)
(8.760620907e-06 7.728193085e-16 -7.708987285e-06)
(8.699309182e-06 7.767224364e-16 -7.708985123e-06)
(8.632782657e-06 7.797582025e-16 -7.708982776e-06)
(8.56359709e-06 7.840950111e-16 -7.708980335e-06)
(8.494411522e-06 7.884318198e-16 -7.708977894e-06)
(8.427884997e-06 7.932023094e-16 -7.708975548e-06)
(8.366573272e-06 7.971054372e-16 -7.708973385e-06)
(8.312832975e-06 8.001412033e-16 -7.708971489e-06)
(8.268729847e-06 8.027432885e-16 -7.708969933e-06)
(8.235958151e-06 8.04478012e-16 -7.708968777e-06)
(8.215777723e-06 8.057790546e-16 -7.708968065e-06)
(1.247897136e-05 6.884120615e-16 -1.169941278e-05)
(1.248601058e-05 6.879262784e-16 -1.169941304e-05)
(1.250685714e-05 6.867336561e-16 -1.169941383e-05)
(1.254071058e-05 6.847820921e-16 -1.16994151e-05)
(1.25862695e-05 6.821800069e-16 -1.169941681e-05)
(1.264178369e-05 6.791442408e-16 -1.16994189e-05)
(1.270511923e-05 6.75241113e-16 -1.169942128e-05)
(1.277384171e-05 6.713379852e-16 -1.169942386e-05)
(1.2845311e-05 6.670011765e-16 -1.169942655e-05)
(1.291678029e-05 6.626643678e-16 -1.169942924e-05)
(1.298550276e-05 6.5876124e-16 -1.169943182e-05)
(1.304883831e-05 6.548581122e-16 -1.16994342e-05)
(1.31043525e-05 6.518223461e-16 -1.169943629e-05)
(1.314991141e-05 6.492202609e-16 -1.1699438e-05)
(1.318376486e-05 6.47268697e-16 -1.169943928e-05)
(1.320461142e-05 6.458592341e-16 -1.169944006e-05)
(1.321165063e-05 6.454687515e-16 -1.169944033e-05)
(1.320461142e-05 6.458592341e-16 -1.169944006e-05)
(1.318376486e-05 6.47268697e-16 -1.169943928e-05)
(1.314991141e-05 6.492202609e-16 -1.1699438e-05)
(1.31043525e-05 6.518223461e-16 -1.169943629e-05)
(1.304883831e-05 6.548581122e-16 -1.16994342e-05)
(1.298550276e-05 6.5876124e-16 -1.169943182e-05)
(1.291678029e-05 6.626643678e-16 -1.169942924e-05)
(1.2845311e-05 6.670011765e-16 -1.169942655e-05)
(1.277384171e-05 6.713379852e-16 -1.169942386e-05)
(1.270511923e-05 6.75241113e-16 -1.169942128e-05)
(1.264178369e-05 6.791442408e-16 -1.16994189e-05)
(1.25862695e-05 6.821800069e-16 -1.169941681e-05)
(1.254071058e-05 6.847820921e-16 -1.16994151e-05)
(1.250685714e-05 6.867336561e-16 -1.169941382e-05)
(1.248601058e-05 6.879262784e-16 -1.169941304e-05)
(1.674647225e-05 5.589393938e-16 -1.583279358e-05)
(1.67537826e-05 5.58472539e-16 -1.583279387e-05)
(1.677543212e-05 5.572799167e-16 -1.583279474e-05)
(1.681058952e-05 5.555451932e-16 -1.583279616e-05)
(1.685790326e-05 5.52943108e-16 -1.583279806e-05)
(1.691555573e-05 5.499073419e-16 -1.583280038e-05)
(1.698133082e-05 5.460042141e-16 -1.583280303e-05)
(1.705270033e-05 5.412337245e-16 -1.583280591e-05)
(1.712692245e-05 5.368969158e-16 -1.58328089e-05)
(1.720114458e-05 5.325601071e-16 -1.583281188e-05)
(1.727251409e-05 5.29524341e-16 -1.583281476e-05)
(1.733828917e-05 5.256212132e-16 -1.583281741e-05)
(1.739594164e-05 5.225854471e-16 -1.583281973e-05)
(1.744325538e-05 5.199833619e-16 -1.583282163e-05)
(1.747841278e-05 5.178149576e-16 -1.583282305e-05)
(1.75000623e-05 5.164054948e-16 -1.583282392e-05)
(1.750737265e-05 5.159957493e-16 -1.583282421e-05)
(1.75000623e-05 5.164054948e-16 -1.583282392e-05)
(1.747841278e-05 5.178149576e-16 -1.583282305e-05)
(1.744325538e-05 5.199833619e-16 -1.583282163e-05)
(1.739594164e-05 5.225854471e-16 -1.583281973e-05)
(1.733828917e-05 5.256212132e-16 -1.583281741e-05)
(1.727251409e-05 5.29524341e-16 -1.583281476e-05)
(1.720114458e-05 5.325601071e-16 -1.583281188e-05)
(1.712692245e-05 5.368969158e-16 -1.58328089e-05)
(1.705270033e-05 5.412337245e-16 -1.583280591e-05)
(1.698133082e-05 5.460042141e-16 -1.583280303e-05)
(1.691555573e-05 5.499073419e-16 -1.583280038e-05)
(1.685790326e-05 5.52943108e-16 -1.583279806e-05)
(1.681058952e-05 5.555451932e-16 -1.583279616e-05)
(1.677543212e-05 5.572799167e-16 -1.583279474e-05)
(1.67537826e-05 5.58472539e-16 -1.583279387e-05)
(2.101368222e-05 4.148427602e-16 -2.012329705e-05)
(2.10212667e-05 4.143820703e-16 -2.012329738e-05)
(2.104372806e-05 4.130810277e-16 -2.012329834e-05)
(2.108020384e-05 4.111294638e-16 -2.01232999e-05)
(2.112929181e-05 4.085273786e-16 -2.0123302e-05)
(2.11891062e-05 4.054916125e-16 -2.012330456e-05)
(2.12573478e-05 4.015884847e-16 -2.012330749e-05)
(2.133139361e-05 3.981190377e-16 -2.012331066e-05)
(2.140839901e-05 3.93782229e-16 -2.012331396e-05)
(2.148540441e-05 3.894454204e-16 -2.012331725e-05)
(2.155945022e-05 3.851086117e-16 -2.012332043e-05)
(2.162769182e-05 3.812054838e-16 -2.012332335e-05)
(2.168750622e-05 3.781697178e-16 -2.012332591e-05)
(2.173659418e-05 3.755676325e-16 -2.012332801e-05)
(2.177306996e-05 3.736160686e-16 -2.012332957e-05)
(2.179553132e-05 3.72315026e-16 -2.012333054e-05)
(2.18031158e-05 3.718987799e-16 -2.012333086e-05)
(2.179553132e-05 3.72315026e-16 -2.012333054e-05)
(2.177306996e-05 3.736160686e-16 -2.012332957e-05)
(2.173659418e-05 3.755676325e-16 -2.012332801e-05)
(2.168750622e-05 3.781697178e-16 -2.012332591e-05)
(2.162769182e-05 3.812054838e-16 -2.012332335e-05)
(2.155945022e-05 3.851086117e-16 -2.012332043e-05)
(2.148540441e-05 3.894454204e-16 -2.012331725e-05)
(2.140839901e-05 3.93782229e-16 -2.012331396e-05)
(2.133139361e-05 3.981190377e-16 -2.012331066e-05)
(2.12573478e-05 4.015884847e-16 -2.012330749e-05)
(2.11891062e-05 4.054916125e-16 -2.012330456e-05)
(2.112929181e-05 4.085273786e-16 -2.0123302e-05)
(2.108020384e-05 4.111294638e-16 -2.01232999e-05)
(2.104372806e-05 4.130810277e-16 -2.012329834e-05)
(2.10212667e-05 4.143820703e-16 -2.012329738e-05)
(2.528341565e-05 2.539941728e-16 -2.455692106e-05)
(2.529122261e-05 2.535948881e-16 -2.455692141e-05)
(2.531434284e-05 2.521854253e-16 -2.455692245e-05)
(2.535188857e-05 2.502338614e-16 -2.455692414e-05)
(2.540241646e-05 2.476317762e-16 -2.455692641e-05)
(2.546398541e-05 2.445960101e-16 -2.455692918e-05)
(2.553422876e-05 2.406928823e-16 -2.455693234e-05)
(2.561044659e-05 2.367897545e-16 -2.455693576e-05)
(2.568971081e-05 2.324529458e-16 -2.455693933e-05)
(2.576897504e-05 2.281161371e-16 -2.455694289e-05)
(2.584519286e-05 2.242130093e-16 -2.455694632e-05)
(2.591543622e-05 2.203098814e-16 -2.455694948e-05)
(2.597700517e-05 2.172741154e-16 -2.455695225e-05)
(2.602753305e-05 2.146720302e-16 -2.455695452e-05)
(2.606507879e-05 2.127204662e-16 -2.455695621e-05)
(2.608819902e-05 2.115278439e-16 -2.455695725e-05)
(2.609600598e-05 2.110497147e-16 -2.45569576e-05)
(2.608819902e-05 2.115278439e-16 -2.455695725e-05)
(2.606507879e-05 2.127204662e-16 -2.455695621e-05)
(2.602753305e-05 2.146720302e-16 -2.455695452e-05)
(2.597700517e-05 2.172741154e-16 -2.455695225e-05)
(2.591543622e-05 2.203098814e-16 -2.455694948e-05)
(2.584519286e-05 2.242130093e-16 -2.455694632e-05)
(2.576897504e-05 2.281161371e-16 -2.455694289e-05)
(2.568971081e-05 2.324529458e-16 -2.455693933e-05)
(2.561044659e-05 2.367897545e-16 -2.455693576e-05)
(2.553422876e-05 2.406928823e-16 -2.455693234e-05)
(2.546398541e-05 2.445960101e-16 -2.455692918e-05)
(2.540241646e-05 2.476317762e-16 -2.455692641e-05)
(2.535188857e-05 2.502338614e-16 -2.455692414e-05)
(2.531434284e-05 2.521854253e-16 -2.455692245e-05)
(2.529122261e-05 2.535948881e-16 -2.455692141e-05)
(2.955904553e-05 7.532951948e-17 -2.908510595e-05)
(2.9566958e-05 7.48099499e-17 -2.908510631e-05)
(2.959039069e-05 7.372574773e-17 -2.908510739e-05)
(2.962844385e-05 7.155734338e-17 -2.908510915e-05)
(2.967965461e-05 6.895525817e-17 -2.908511152e-05)
(2.974205566e-05 6.591949209e-17 -2.90851144e-05)
(2.981324834e-05 6.201636427e-17 -2.908511769e-05)
(2.989049624e-05 5.811323645e-17 -2.908512126e-05)
(2.997083171e-05 5.377642776e-17 -2.908512497e-05)
(3.005116717e-05 4.943961907e-17 -2.908512868e-05)
(3.012841507e-05 4.553649124e-17 -2.908513225e-05)
(3.019960775e-05 4.163336342e-17 -2.908513554e-05)
(3.02620088e-05 3.859759734e-17 -2.908513842e-05)
(3.031321956e-05 3.599551213e-17 -2.908514078e-05)
(3.035127272e-05 3.426078865e-17 -2.908514254e-05)
(3.037470541e-05 3.274290561e-17 -2.908514362e-05)
(3.038261788e-05 3.238463232e-17 -2.908514399e-05)
(3.037470541e-05 3.274290561e-17 -2.908514362e-05)
(3.035127272e-05 3.426078865e-17 -2.908514254e-05)
(3.031321956e-05 3.599551213e-17 -2.908514078e-05)
(3.02620088e-05 3.859759734e-17 -2.908513842e-05)
(3.019960775e-05 4.163336342e-17 -2.908513554e-05)
(3.012841507e-05 4.553649124e-17 -2.908513225e-05)
(3.005116717e-05 4.943961907e-17 -2.908512868e-05)
(2.997083171e-05 5.377642776e-17 -2.908512497e-05)
(2.989049624e-05 5.811323645e-17 -2.908512126e-05)
(2.981324834e-05 6.201636427e-17 -2.908511769e-05)
(2.974205566e-05 6.591949209e-17 -2.90851144e-05)
(2.967965461e-05 6.895525817e-17 -2.908511152e-05)
(2.962844385e-05 7.155734338e-17 -2.908510915e-05)
(2.959039069e-05 7.372574773e-17 -2.908510739e-05)
(2.9566958e-05 7.48099499e-17 -2.908510631e-05)
(3.384444864e-05 -1.209130407e-16 -3.361889842e-05)
(3.385227474e-05 -1.213222231e-16 -3.361889878e-05)
(3.387545165e-05 -1.225148455e-16 -3.361889985e-05)
(3.391308943e-05 -1.244664094e-16 -3.361890158e-05)
(3.396374119e-05 -1.270684946e-16 -3.361890391e-05)
(3.402546109e-05 -1.301042607e-16 -3.361890675e-05)
(3.409587666e-05 -1.340073885e-16 -3.361890999e-05)
(3.417228134e-05 -1.379105163e-16 -3.361891351e-05)
(3.42517399e-05 -1.42247325e-16 -3.361891717e-05)
(3.433119845e-05 -1.465841337e-16 -3.361892083e-05)
(3.440760314e-05 -1.504872615e-16 -3.361892434e-05)
(3.44780187e-05 -1.543903894e-16 -3.361892758e-05)
(3.45397386e-05 -1.574261554e-16 -3.361893043e-05)
(3.459039036e-05 -1.600282407e-16 -3.361893276e-05)
(3.462802815e-05 -1.619798046e-16 -3.361893449e-05)
(3.465120506e-05 -1.633892674e-16 -3.361893556e-05)
(3.465903116e-05 -1.638584235e-16 -3.361893592e-05)
(3.465120506e-05 -1.633892674e-16 -3.361893556e-05)
(3.462802815e-05 -1.619798046e-16 -3.361893449e-05)
(3.459039036e-05 -1.600282407e-16 -3.361893276e-05)
(3.45397386e-05 -1.574261554e-16 -3.361893043e-05)
(3.44780187e-05 -1.543903894e-16 -3.361892758e-05)
(3.440760314e-05 -1.504872615e-16 -3.361892434e-05)
(3.433119845e-05 -1.465841337e-16 -3.361892083e-05)
(3.42517399e-05 -1.42247325e-16 -3.361891717e-05)
(3.417228134e-05 -1.379105163e-16 -3.361891351e-05)
(3.409587666e-05 -1.340073885e-16 -3.361890999e-05)
(3.402546109e-05 -1.301042607e-16 -3.361890675e-05)
(3.396374119e-05 -1.270684946e-16 -3.361890391e-05)
(3.391308943e-05 -1.244664094e-16 -3.361890158e-05)
(3.387545165e-05 -1.225148455e-16 -3.361889985e-05)
(3.385227474e-05 -1.213222231e-16 -3.361889878e-05)
(3.814392747e-05 -3.329277018e-16 -3.802385533e-05)
(3.815139232e-05 -3.332837478e-16 -3.802385566e-05)
(3.817349938e-05 -3.348016309e-16 -3.802385663e-05)
(3.820939979e-05 -3.365363543e-16 -3.802385821e-05)
(3.825771346e-05 -3.391384396e-16 -3.802386033e-05)
(3.831658436e-05 -3.421742056e-16 -3.802386291e-05)
(3.838374953e-05 -3.460773335e-16 -3.802386586e-05)
(3.845662736e-05 -3.495467804e-16 -3.802386906e-05)
(3.85324181e-05 -3.538835891e-16 -3.802387239e-05)
(3.860820883e-05 -3.582203978e-16 -3.802387571e-05)
(3.868108666e-05 -3.625572065e-16 -3.802387891e-05)
(3.874825183e-05 -3.664603343e-16 -3.802388186e-05)
(3.880712273e-05 -3.694961004e-16 -3.802388445e-05)
(3.88554364e-05 -3.720981856e-16 -3.802388657e-05)
(3.889133682e-05 -3.742665899e-16 -3.802388814e-05)
(3.891344387e-05 -3.753507921e-16 -3.802388911e-05)
(3.892090872e-05 -3.758734305e-16 -3.802388944e-05)
(3.891344387e-05 -3.753507921e-16 -3.802388911e-05)
(3.889133682e-05 -3.742665899e-16 -3.802388814e-05)
(3.88554364e-05 -3.720981856e-16 -3.802388657e-05)
(3.880712273e-05 -3.694961004e-16 -3.802388445e-05)
(3.874825183e-05 -3.664603343e-16 -3.802388186e-05)
(3.868108666e-05 -3.625572065e-16 -3.802387891e-05)
(3.860820883e-05 -3.582203978e-16 -3.802387571e-05)
(3.85324181e-05 -3.538835891e-16 -3.802387239e-05)
(3.845662736e-05 -3.495467804e-16 -3.802386906e-05)
(3.838374953e-05 -3.460773335e-16 -3.802386586e-05)
(3.831658436e-05 -3.421742056e-16 -3.802386291e-05)
(3.825771346e-05 -3.391384396e-16 -3.802386033e-05)
(3.820939979e-05 -3.365363543e-16 -3.802385821e-05)
(3.817349938e-05 -3.348016309e-16 -3.802385663e-05)
(3.815139232e-05 -3.332837478e-16 -3.802385566e-05)
(4.246211061e-05 -5.570857528e-16 -4.211592471e-05)
(4.246885011e-05 -5.576051773e-16 -4.211592498e-05)
(4.248880907e-05 -5.587977997e-16 -4.211592576e-05)
(4.25212211e-05 -5.607493636e-16 -4.211592703e-05)
(4.256484021e-05 -5.633514488e-16 -4.211592874e-05)
(4.261799072e-05 -5.663872149e-16 -4.211593082e-05)
(4.267862957e-05 -5.702903427e-16 -4.211593319e-05)
(4.274442599e-05 -5.741934705e-16 -4.211593577e-05)
(4.281285226e-05 -5.785302792e-16 -4.211593845e-05)
(4.288127854e-05 -5.828670879e-16 -4.211594113e-05)
(4.294707495e-05 -5.867702157e-16 -4.21159437e-05)
(4.30077138e-05 -5.906733436e-16 -4.211594608e-05)
(4.306086431e-05 -5.937091097e-16 -4.211594816e-05)
(4.310448342e-05 -5.963111949e-16 -4.211594987e-05)
(4.313689546e-05 -5.982627588e-16 -4.211595114e-05)
(4.315685441e-05 -5.996722216e-16 -4.211595192e-05)
(4.316359391e-05 -6.000317754e-16 -4.211595218e-05)
(4.315685441e-05 -5.996722216e-16 -4.211595192e-05)
(4.313689546e-05 -5.982627588e-16 -4.211595114e-05)
(4.310448342e-05 -5.963111949e-16 -4.211594987e-05)
(4.306086431e-05 -5.937091097e-16 -4.211594816e-05)
(4.30077138e-05 -5.906733436e-16 -4.211594608e-05)
(4.294707495e-05 -5.867702157e-16 -4.21159437e-05)
(4.288127854e-05 -5.828670879e-16 -4.211594113e-05)
(4.281285226e-05 -5.785302792e-16 -4.211593845e-05)
(4.274442599e-05 -5.741934705e-16 -4.211593577e-05)
(4.267862957e-05 -5.702903427e-16 -4.211593319e-05)
(4.261799072e-05 -5.663872149e-16 -4.211593082e-05)
(4.256484021e-05 -5.633514488e-16 -4.211592874e-05)
(4.25212211e-05 -5.607493636e-16 -4.211592703e-05)
(4.248880907e-05 -5.587977997e-16 -4.211592576e-05)
(4.246885011e-05 -5.576051773e-16 -4.211592498e-05)
(4.680382555e-05 -7.876700061e-16 -4.56585578e-05)
(4.680938258e-05 -7.881065592e-16 -4.565855798e-05)
(4.682583968e-05 -7.89516022e-16 -4.565855849e-05)
(4.685256492e-05 -7.914675859e-16 -4.565855932e-05)
(4.688853092e-05 -7.940696711e-16 -4.565856043e-05)
(4.693235601e-05 -7.971054372e-16 -4.565856179e-05)
(4.698235558e-05 -8.01008565e-16 -4.565856334e-05)
(4.703660781e-05 -8.049116929e-16 -4.565856503e-05)
(4.709302848e-05 -8.092485015e-16 -4.565856678e-05)
(4.714944915e-05 -8.135853102e-16 -4.565856853e-05)
(4.720370138e-05 -8.174884381e-16 -4.565857021e-05)
(4.725370095e-05 -8.213915659e-16 -4.565857176e-05)
(4.729752604e-05 -8.24427332e-16 -4.565857312e-05)
(4.733349204e-05 -8.270294172e-16 -4.565857424e-05)
(4.736021728e-05 -8.289809811e-16 -4.565857506e-05)
(4.737667437e-05 -8.301736035e-16 -4.565857558e-05)
(4.73822314e-05 -8.306161329e-16 -4.565857575e-05)
(4.737667437e-05 -8.301736035e-16 -4.565857558e-05)
(4.736021728e-05 -8.289809811e-16 -4.565857506e-05)
(4.733349204e-05 -8.270294172e-16 -4.565857424e-05)
(4.729752604e-05 -8.24427332e-16 -4.565857312e-05)
(4.725370095e-05 -8.213915659e-16 -4.565857176e-05)
(4.720370138e-05 -8.174884381e-16 -4.565857021e-05)
(4.714944915e-05 -8.135853102e-16 -4.565856853e-05)
(4.709302848e-05 -8.092485015e-16 -4.565856678e-05)
(4.703660781e-05 -8.049116929e-16 -4.565856503e-05)
(4.698235558e-05 -8.01008565e-16 -4.565856334e-05)
(4.693235601e-05 -7.971054372e-16 -4.565856179e-05)
(4.688853092e-05 -7.940696711e-16 -4.565856043e-05)
(4.685256492e-05 -7.914675859e-16 -4.565855932e-05)
(4.682583968e-05 -7.89516022e-16 -4.565855849e-05)
(4.680938258e-05 -7.881065592e-16 -4.565855798e-05)
(5.117393715e-05 -1.016614251e-15 -4.836136902e-05)
(5.117776074e-05 -1.016981638e-15 -4.836136909e-05)
(5.118908426e-05 -1.018499521e-15 -4.83613693e-05)
(5.120747292e-05 -1.020017404e-15 -4.836136963e-05)
(5.12322198e-05 -1.022619489e-15 -4.836137008e-05)
(5.126237423e-05 -1.025655255e-15 -4.836137063e-05)
(5.12967771e-05 -1.029558383e-15 -4.836137126e-05)
(5.133410606e-05 -1.033895192e-15 -4.836137194e-05)
(5.137292705e-05 -1.038232e-15 -4.836137264e-05)
(5.141174804e-05 -1.042568809e-15 -4.836137335e-05)
(5.1449077e-05 -1.046038256e-15 -4.836137403e-05)
(5.148347987e-05 -1.049941384e-15 -4.836137465e-05)
(5.15136343e-05 -1.05297715e-15 -4.83613752e-05)
(5.153838118e-05 -1.055579235e-15 -4.836137565e-05)
(5.155676984e-05 -1.05796448e-15 -4.836137598e-05)
(5.156809336e-05 -1.059048682e-15 -4.836137619e-05)
(5.157191695e-05 -1.059560258e-15 -4.836137626e-05)
(5.156809336e-05 -1.059048682e-15 -4.836137619e-05)
(5.155676984e-05 -1.05796448e-15 -4.836137598e-05)
(5.153838118e-05 -1.055579235e-15 -4.836137565e-05)
(5.15136343e-05 -1.05297715e-15 -4.83613752e-05)
(5.148347987e-05 -1.049941384e-15 -4.836137465e-05)
(5.1449077e-05 -1.046038256e-15 -4.836137403e-05)
(5.141174804e-05 -1.042568809e-15 -4.836137335e-05)
(5.137292705e-05 -1.038232e-15 -4.836137264e-05)
(5.133410606e-05 -1.033895192e-15 -4.836137194e-05)
(5.12967771e-05 -1.029558383e-15 -4.836137126e-05)
(5.126237423e-05 -1.025655255e-15 -4.836137063e-05)
(5.12322198e-05 -1.022619489e-15 -4.836137008e-05)
(5.120747292e-05 -1.020017404e-15 -4.836136963e-05)
(5.118908426e-05 -1.018499521e-15 -4.83613693e-05)
(5.117776074e-05 -1.016981638e-15 -4.836136909e-05)
(5.557715599e-05 -1.233294262e-15 -4.988066721e-05)
(5.557860398e-05 -1.233713652e-15 -4.98806672e-05)
(5.558289219e-05 -1.234906274e-15 -4.988066717e-05)
(5.558985596e-05 -1.236857838e-15 -4.988066713e-05)
(5.559922758e-05 -1.239459924e-15 -4.988066707e-05)
(5.561064704e-05 -1.24249569e-15 -4.9880667e-05)
(5.562367538e-05 -1.246398817e-15 -4.988066691e-05)
(5.563781183e-05 -1.250735626e-15 -4.988066682e-05)
(5.565251331e-05 -1.255072435e-15 -4.988066673e-05)
(5.566721479e-05 -1.259409244e-15 -4.988066664e-05)
(5.568135124e-05 -1.262878691e-15 -4.988066655e-05)
(5.569437958e-05 -1.266781818e-15 -4.988066647e-05)
(5.570579904e-05 -1.269817584e-15 -4.988066639e-05)
(5.571517066e-05 -1.27241967e-15 -4.988066633e-05)
(5.572213443e-05 -1.274371234e-15 -4.988066629e-05)
(5.572642264e-05 -1.275780696e-15 -4.988066626e-05)
(5.572787063e-05 -1.276239938e-15 -4.988066625e-05)
(5.572642264e-05 -1.275780696e-15 -4.988066626e-05)
(5.572213443e-05 -1.274371234e-15 -4.988066629e-05)
(5.571517066e-05 -1.27241967e-15 -4.988066633e-05)
(5.570579904e-05 -1.269817584e-15 -4.988066639e-05)
(5.569437958e-05 -1.266781818e-15 -4.988066647e-05)
(5.568135124e-05 -1.262878691e-15 -4.988066655e-05)
(5.566721479e-05 -1.259409244e-15 -4.988066664e-05)
(5.565251331e-05 -1.255072435e-15 -4.988066673e-05)
(5.563781183e-05 -1.250735626e-15 -4.988066682e-05)
(5.562367538e-05 -1.246398817e-15 -4.988066691e-05)
(5.561064704e-05 -1.24249569e-15 -4.9880667e-05)
(5.559922758e-05 -1.239459924e-15 -4.988066707e-05)
(5.558985596e-05 -1.236857838e-15 -4.988066713e-05)
(5.558289219e-05 -1.234906274e-15 -4.988066717e-05)
(5.557860398e-05 -1.233713652e-15 -4.98806672e-05)
(6.001780569e-05 -1.42435501e-15 -4.982221279e-05)
(6.001615164e-05 -1.424858495e-15 -4.982221279e-05)
(6.00112532e-05 -1.425942697e-15 -4.982221278e-05)
(6.000329845e-05 -1.428111102e-15 -4.982221277e-05)
(5.99925932e-05 -1.430713187e-15 -4.982221275e-05)
(5.99795487e-05 -1.433748953e-15 -4.982221273e-05)
(5.996466637e-05 -1.437652081e-15 -4.982221271e-05)
(5.994851823e-05 -1.441555209e-15 -4.982221269e-05)
(5.993172466e-05 -1.445892017e-15 -4.982221266e-05)
(5.99149311e-05 -1.450228826e-15 -4.982221264e-05)
(5.989878296e-05 -1.454131954e-15 -4.982221262e-05)
(5.988390063e-05 -1.458035082e-15 -4.982221259e-05)
(5.987085613e-05 -1.461070848e-15 -4.982221257e-05)
(5.986015088e-05 -1.463672933e-15 -4.982221256e-05)
(5.985219613e-05 -1.465407656e-15 -4.982221255e-05)
(5.984729769e-05 -1.466925539e-15 -4.982221254e-05)
(5.984564364e-05 -1.467300236e-15 -4.982221254e-05)
(5.984729769e-05 -1.466925539e-15 -4.982221254e-05)
(5.985219613e-05 -1.465407656e-15 -4.982221255e-05)
(5.986015088e-05 -1.463672933e-15 -4.982221256e-05)
(5.987085613e-05 -1.461070848e-15 -4.982221257e-05)
(5.988390063e-05 -1.458035082e-15 -4.982221259e-05)
(5.989878296e-05 -1.454131954e-15 -4.982221262e-05)
(5.99149311e-05 -1.450228826e-15 -4.982221264e-05)
(5.993172466e-05 -1.445892017e-15 -4.982221266e-05)
(5.994851823e-05 -1.441555209e-15 -4.982221269e-05)
(5.996466637e-05 -1.437652081e-15 -4.982221271e-05)
(5.99795487e-05 -1.433748953e-15 -4.982221273e-05)
(5.99925932e-05 -1.430713187e-15 -4.982221275e-05)
(6.000329845e-05 -1.428111102e-15 -4.982221277e-05)
(6.00112532e-05 -1.425942697e-15 -4.982221278e-05)
(6.001615164e-05 -1.424858495e-15 -4.982221279e-05)
(6.44995618e-05 -1.573609742e-15 -4.774654441e-05)
(6.44940066e-05 -1.574044714e-15 -4.774654459e-05)
(6.447755491e-05 -1.575345757e-15 -4.774654514e-05)
(6.445083846e-05 -1.577731001e-15 -4.774654602e-05)
(6.441488429e-05 -1.580333087e-15 -4.77465472e-05)
(6.437107361e-05 -1.583368853e-15 -4.774654864e-05)
(6.432109048e-05 -1.587271981e-15 -4.774655029e-05)
(6.426685609e-05 -1.590741427e-15 -4.774655208e-05)
(6.421045397e-05 -1.595078236e-15 -4.774655393e-05)
(6.415405186e-05 -1.599415045e-15 -4.774655579e-05)
(6.409981747e-05 -1.603751854e-15 -4.774655758e-05)
(6.404983434e-05 -1.607654981e-15 -4.774655923e-05)
(6.400602366e-05 -1.610690747e-15 -4.774656067e-05)
(6.397006949e-05 -1.613292833e-15 -4.774656185e-05)
(6.394335304e-05 -1.614810716e-15 -4.774656273e-05)
(6.392690135e-05 -1.616111758e-15 -4.774656328e-05)
(6.392134615e-05 -1.616554524e-15 -4.774656346e-05)
(6.392690135e-05 -1.616111758e-15 -4.774656328e-05)
(6.394335304e-05 -1.614810716e-15 -4.774656273e-05)
(6.397006949e-05 -1.613292833e-15 -4.774656185e-05)
(6.400602366e-05 -1.610690747e-15 -4.774656067e-05)
(6.404983434e-05 -1.607654981e-15 -4.774655923e-05)
(6.409981747e-05 -1.603751854e-15 -4.774655758e-05)
(6.415405186e-05 -1.599415045e-15 -4.774655579e-05)
(6.421045397e-05 -1.595078236e-15 -4.774655393e-05)
(6.426685609e-05 -1.590741427e-15 -4.774655208e-05)
(6.432109048e-05 -1.587271981e-15 -4.774655029e-05)
(6.437107361e-05 -1.583368853e-15 -4.774654864e-05)
(6.441488429e-05 -1.580333087e-15 -4.77465472e-05)
(6.445083846e-05 -1.577731001e-15 -4.774654602e-05)
(6.447755491e-05 -1.575345757e-15 -4.774654514e-05)
(6.44940066e-05 -1.574044714e-15 -4.774654459e-05)
(6.902515373e-05 -1.662028984e-15 -4.317720082e-05)
(6.901484251e-05 -1.662407191e-15 -4.317720149e-05)
(6.898430593e-05 -1.663816654e-15 -4.31772035e-05)
(6.893471654e-05 -1.665768218e-15 -4.317720675e-05)
(6.886798067e-05 -1.668370303e-15 -4.317721112e-05)
(6.878666205e-05 -1.671406069e-15 -4.317721646e-05)
(6.869388652e-05 -1.675309197e-15 -4.317722254e-05)
(6.859322007e-05 -1.679212325e-15 -4.317722914e-05)
(6.848853002e-05 -1.683549133e-15 -4.317723601e-05)
(6.838383996e-05 -1.687885942e-15 -4.317724287e-05)
(6.828317351e-05 -1.69178907e-15 -4.317724947e-05)
(6.819039798e-05 -1.695692198e-15 -4.317725556e-05)
(6.810907937e-05 -1.698727964e-15 -4.317726089e-05)
(6.80423435e-05 -1.701330049e-15 -4.317726527e-05)
(6.79927541e-05 -1.703281613e-15 -4.317726852e-05)
(6.796221753e-05 -1.704474235e-15 -4.317727052e-05)
(6.79519063e-05 -1.70497384e-15 -4.31772712e-05)
(6.796221753e-05 -1.704474235e-15 -4.317727052e-05)
(6.79927541e-05 -1.703281613e-15 -4.317726852e-05)
(6.80423435e-05 -1.701330049e-15 -4.317726527e-05)
(6.810907937e-05 -1.698727964e-15 -4.317726089e-05)
(6.819039798e-05 -1.695692198e-15 -4.317725556e-05)
(6.828317351e-05 -1.69178907e-15 -4.317724947e-05)
(6.838383996e-05 -1.687885942e-15 -4.317724287e-05)
(6.848853002e-05 -1.683549133e-15 -4.317723601e-05)
(6.859322007e-05 -1.679212325e-15 -4.317722914e-05)
(6.869388652e-05 -1.675309197e-15 -4.317722254e-05)
(6.878666205e-05 -1.671406069e-15 -4.317721646e-05)
(6.886798067e-05 -1.668370303e-15 -4.317721112e-05)
(6.893471654e-05 -1.665768218e-15 -4.317720675e-05)
(6.898430593e-05 -1.663816654e-15 -4.31772035e-05)
(6.901484251e-05 -1.662407191e-15 -4.317720149e-05)
(7.359604583e-05 -1.667865712e-15 -3.561213428e-05)
(7.358009067e-05 -1.668261883e-15 -3.561213593e-05)
(7.353283965e-05 -1.669671346e-15 -3.561214079e-05)
(7.345610708e-05 -1.67183975e-15 -3.561214869e-05)
(7.335284278e-05 -1.674441835e-15 -3.561215932e-05)
(7.322701374e-05 -1.677477601e-15 -3.561217228e-05)
(7.308345674e-05 -1.681380729e-15 -3.561218706e-05)
(7.292768967e-05 -1.685283857e-15 -3.56122031e-05)
(7.276569664e-05 -1.689620666e-15 -3.561221978e-05)
(7.260370361e-05 -1.693957474e-15 -3.561223645e-05)
(7.244793653e-05 -1.697860602e-15 -3.561225249e-05)
(7.230437954e-05 -1.70176373e-15 -3.561226727e-05)
(7.21785505e-05 -1.704799496e-15 -3.561228023e-05)
(7.207528619e-05 -1.707401581e-15 -3.561229086e-05)
(7.199855362e-05 -1.709136305e-15 -3.561229876e-05)
(7.19513026e-05 -1.710328927e-15 -3.561230362e-05)
(7.193534744e-05 -1.710811607e-15 -3.561230527e-05)
(7.19513026e-05 -1.710328927e-15 -3.561230362e-05)
(7.199855362e-05 -1.709136305e-15 -3.561229876e-05)
(7.207528619e-05 -1.707401581e-15 -3.561229086e-05)
(7.21785505e-05 -1.704799496e-15 -3.561228023e-05)
(7.230437954e-05 -1.70176373e-15 -3.561226727e-05)
(7.244793653e-05 -1.697860602e-15 -3.561225249e-05)
(7.260370361e-05 -1.693957474e-15 -3.561223645e-05)