/*--------------------------------*- C++ -*----------------------------------*\
| =========                 |                                                 |
| \\      /  F ield         | OpenFOAM: The Open Source CFD Toolbox           |
|  \\    /   O peration     | Version:  2312                                  |
|   \\  /    A nd           | Website:  www.openfoam.com                      |
|    \\/     M anipulation  |                                                 |
\*---------------------------------------------------------------------------*/
FoamFile
{
    version     2.0;
    format      ascii;
    arch        "LSB;label=32;scalar=64";
    class       surfaceVectorField;
    location    "0.07/beam";
    object      Q;
}
// * * * * * * * * * * * * * * * * * * * * * * * * * * * * * * * * * * * * * //

dimensions      [1 1 -2 0 0 0 0];

oriented        oriented;

internalField   nonuniform List<vector> 
59
(
(0.01458408392 -6.270160719e-18 -8.672305e-07)
(0.0145839277 -1.034217749e-17 -9.708477979e-07)
(0.01458366733 -1.707583763e-17 -1.13873313e-06)
(0.01458330277 -2.638302516e-17 -1.363601913e-06)
(0.01458283397 -3.81236289e-17 -1.63512842e-06)
(0.01458226089 -5.208944852e-17 -1.939844694e-06)
(0.01458158347 -6.798479361e-17 -2.261047251e-06)
(0.01458080163 -8.540463466e-17 -2.578737685e-06)
(0.01457991529 -1.038115303e-16 -2.869627438e-06)
(0.01457892435 -1.225127008e-16 -3.107240145e-06)
(0.0145778287 -1.40639141e-16 -3.262146746e-06)
(0.01457662822 -1.571285582e-16 -3.302368742e-06)
(0.01457532277 -1.707145059e-16 -3.193983255e-06)
(0.01457391222 -1.799238973e-16 -2.901959575e-06)
(0.01457239639 -1.830855859e-16 -2.391250312e-06)
(0.01457077509 -1.783520465e-16 -1.628150854e-06)
(0.01456904813 -1.637366947e-16 -5.819281798e-07)
(0.01456721526 -1.371719389e-16 7.732958499e-07)
(0.01456527625 -9.657975715e-17 2.456441076e-06)
(0.01456323081 -3.996336047e-17 4.477202498e-06)
(0.01456107865 3.447635858e-17 6.833703223e-06)
(0.01455881947 1.282081613e-16 9.510177167e-06)
(0.01455645323 2.42206868e-16 1.247446933e-05)
(0.0145539788 3.768605893e-16 1.567797658e-05)
(0.01455139702 5.316402622e-16 1.905045093e-05)
(0.01454870646 7.051595368e-16 2.250490423e-05)
(0.01454590813 8.947272705e-16 2.59319207e-05)
(0.01454300062 1.096505307e-15 2.920733852e-05)
(0.01453998514 1.305036368e-15 3.218887382e-05)
(0.01453686025 1.513507533e-15 3.472607971e-05)
(0.01453362734 1.713318988e-15 3.666043765e-05)
(0.01453028486 1.894447415e-15 3.783638786e-05)
(0.01452683419 2.045133851e-15 3.810512306e-05)
(0.01452327348 2.152306275e-15 3.733390654e-05)
(0.01451960386 2.201467815e-15 3.541200092e-05)
(0.01451582292 2.177086059e-15 3.225342284e-05)
(0.01451193131 2.062751798e-15 2.780096755e-05)
(0.01450792586 1.841395169e-15 2.201557683e-05)
(0.01450380657 1.495785058e-15 1.487232276e-05)
(0.01449956935 1.0084207e-15 6.329136972e-06)
(0.01449521331 3.624874464e-16 -3.690739907e-06)
(0.01449073282 -4.586512647e-16 -1.535419688e-05)
(0.01448612495 -1.469775946e-15 -2.894757023e-05)
(0.01448138047 -2.684562771e-15 -4.494837202e-05)
(0.01447649105 -4.112606636e-15 -6.404620678e-05)
(0.01447143904 -5.759836207e-15 -8.720092265e-05)
(0.01446620447 -7.623204124e-15 -0.0001156033544)
(0.01446075433 -9.689636019e-15 -0.0001506592237)
(0.01445505121 -1.192696587e-14 -0.0001938002141)
(0.01444904496 -1.427993588e-14 -0.0002463072054)
(0.01444268838 -1.665624816e-14 -0.000308865378)
(0.01443593806 -1.891873362e-14 -0.0003811560975)
(0.01442878607 -2.086758008e-14 -0.0004611131325)
(0.014421278 -2.223069223e-14 -0.0005443375327)
(0.01441356505 -2.264909462e-14 -0.0006232515393)
(0.01440593289 -2.16745381e-14 -0.0006867194418)
(0.01439884717 -1.877676062e-14 -0.0007198195222)
(0.01439293751 -1.337011347e-14 -0.0007046647364)
(0.01438894002 -4.879325376e-15 -0.0006223539508)
)
;

boundaryField
{
    left
    {
        type            calculated;
        value           uniform (-0.01458413599 -6.811785041e-12 8.322056444e-07);
    }
    right
    {
        type            calculated;
        value           uniform (0.01438751249 -6.803855418e-12 -0.0004568284508);
    }
    beam
    {
        type            empty;
        value           nonuniform List<vector> 0();
    }
}


// ************************************************************************* //
