/*--------------------------------*- C++ -*----------------------------------*\
| =========                 |                                                 |
| \\      /  F ield         | OpenFOAM: The Open Source CFD Toolbox           |
|  \\    /   O peration     | Version:  2312                                  |
|   \\  /    A nd           | Website:  www.openfoam.com                      |
|    \\/     M anipulation  |                                                 |
\*---------------------------------------------------------------------------*/
FoamFile
{
    version     2.0;
    format      ascii;
    arch        "LSB;label=32;scalar=64";
    class       volVectorField;
    location    "0.07/beam";
    object      Theta;
}
// * * * * * * * * * * * * * * * * * * * * * * * * * * * * * * * * * * * * * //

dimensions      [0 0 0 0 0 0 0];

internalField   nonuniform List<vector> 
60
(
(-2.916832386e-16 4.32566614e-05 -8.920069264e-16)
(-2.916723701e-16 4.68817547e-05 -9.211022699e-16)
(-2.916588563e-16 5.030627133e-05 -9.791469176e-16)
(-2.916395425e-16 5.539494568e-05 -1.064221803e-15)
(-2.91614711e-16 6.035115548e-05 -1.173771573e-15)
(-2.915833169e-16 6.532084145e-05 -1.304202828e-15)
(-2.915441807e-16 6.905094114e-05 -1.449558288e-15)
(-2.914965128e-16 7.09061487e-05 -1.604193584e-15)
(-2.914393068e-16 6.968568171e-05 -1.758129506e-15)
(-2.913723307e-16 6.436283169e-05 -1.901779575e-15)
(-2.912957268e-16 5.3683194e-05 -2.021231405e-15)
(-2.912105994e-16 3.645646993e-05 -2.100588943e-15)
(-2.911192031e-16 1.144487896e-05 -2.121620663e-15)
(-2.910251995e-16 -2.249461754e-05 -2.063691369e-15)
(-2.909337937e-16 -6.640729406e-05 -1.904246164e-15)
(-2.908517244e-16 -0.0001211420197 -1.619392324e-15)
(-2.907870548e-16 -0.0001872986375 -1.184649533e-15)
(-2.907486577e-16 -0.0002651385625 -5.775980959e-16)
(-2.907451091e-16 -0.0003545110948 2.258899886e-16)
(-2.907838074e-16 -0.000454767956 1.242305671e-15)
(-2.908693141e-16 -0.0005646874222 2.483037508e-15)
(-2.91002156e-16 -0.0006824010901 3.952064145e-15)
(-2.911769142e-16 -0.0008053269672 5.640838961e-15)
(-2.913816223e-16 -0.000930151772 7.528749194e-15)
(-2.915983885e-16 -0.001052763577 9.576096645e-15)
(-2.918036307e-16 -0.001168277623 1.172746123e-14)
(-2.919730123e-16 -0.00127105429 1.389804645e-14)
(-2.920852606e-16 -0.001354752365 1.599024043e-14)
(-2.921315069e-16 -0.001412409936 1.785883013e-14)
(-2.921244138e-16 -0.001436550274 1.936490794e-14)
(-2.921870065e-16 -0.001419306134 2.033946452e-14)
(-2.922607992e-16 -0.001352553167 2.049733571e-14)
(-2.925736671e-16 -0.001228038977 1.961326802e-14)
(-2.933426906e-16 -0.001037491613 1.743838651e-14)
(-2.948526784e-16 -0.0007726888511 1.366936088e-14)
(-2.974436589e-16 -0.0004254691515 8.010525138e-15)
(-3.014817651e-16 1.23323821e-05 1.503792116e-16)
(-3.072984208e-16 0.0005490339877 -1.020559126e-14)
(-3.150960642e-16 0.001193342929 -2.33298122e-14)
(-3.24791874e-16 0.001954660382 -3.944279176e-14)
(-3.358104779e-16 0.002843415608 -5.868837208e-14)
(-3.467748764e-16 0.003871361545 -8.109326863e-14)
(-3.551513135e-16 0.005051728709 -1.065223844e-13)
(-3.567756271e-16 0.006399103361 -1.346195031e-13)
(-3.454105645e-16 0.007928857531 -1.647393254e-13)
(-3.122730966e-16 0.009655955265 -1.958691339e-13)
(-2.458229727e-16 0.01159293729 -2.265446609e-13)
(-1.317535181e-16 0.01374697937 -2.5476912e-13)
(4.638489475e-17 0.01611593319 -2.779486982e-13)
(3.061866664e-16 0.01868357503 -2.928671262e-13)
(6.647201272e-16 0.0214143052 -2.957317259e-13)
(1.13713708e-15 0.02424829882 -2.823361113e-13)
(1.735945592e-15 0.02709789214 -2.483986628e-13)
(2.473020941e-15 0.02984758788 -1.901500558e-13)
(3.365095432e-15 0.03235876033 -1.052570088e-13)
(4.444284405e-15 0.03448349756 5.833013701e-15)
(5.769897295e-15 0.03608715047 1.380229894e-13)
(7.434265172e-15 0.03708685598 2.791344801e-13)
(9.541342897e-15 0.03749821862 4.068840923e-13)
(1.212366221e-14 0.03750229185 4.853717019e-13)
)
;

boundaryField
{
    left
    {
        type            momentBeamRotationNR;
        value           uniform (-2.916832386e-16 4.32566614e-05 -8.920069264e-16);
        momentSeries    
{
        file            "$FOAM_CASE/constant/beam/timeVsMoment";
        outOfBounds     clamp;
}
        moment          uniform (0 0 0);
    }
    right
    {
        type            momentBeamRotationNR;
        value           uniform (1.212366221e-14 0.03750229185 4.853717019e-13);
        momentSeries    
{
        file            "$FOAM_CASE/constant/beam/timeVsMoment";
        outOfBounds     clamp;
}
        moment          uniform (0 0 0);
    }
    beam
    {
        type            empty;
    }
}


// ************************************************************************* //
