/*--------------------------------*- C++ -*----------------------------------*\
| =========                 |                                                 |
| \\      /  F ield         | OpenFOAM: The Open Source CFD Toolbox           |
|  \\    /   O peration     | Version:  2312                                  |
|   \\  /    A nd           | Website:  www.openfoam.com                      |
|    \\/     M anipulation  |                                                 |
\*---------------------------------------------------------------------------*/
FoamFile
{
    version     2.0;
    format      ascii;
    arch        "LSB;label=32;scalar=64";
    class       volVectorField;
    location    "0.07/beam";
    object      W;
}
// * * * * * * * * * * * * * * * * * * * * * * * * * * * * * * * * * * * * * //

dimensions      [0 1 0 0 0 0 0];

internalField   nonuniform List<vector> 
60
(
(2.140911461e-06 9.477468009e-16 -1.905537998e-06)
(6.422718684e-06 8.411444581e-16 -5.746162197e-06)
(1.070447549e-05 7.283461118e-16 -9.671798473e-06)
(1.49861465e-05 6.055347012e-16 -1.372705463e-05)
(1.92676984e-05 4.694004419e-16 -1.793856316e-05)
(2.354909962e-05 3.173410982e-16 -2.230806475e-05)
(2.783032201e-05 1.477027893e-16 -2.68058139e-05)
(3.21113414e-05 -3.998863752e-17 -3.136443603e-05)
(3.639213839e-05 -2.447828266e-16 -3.58733983e-05)
(4.06726978e-05 -4.640183057e-16 -4.017434647e-05)
(4.495300673e-05 -6.930992225e-16 -4.405753043e-05)
(4.923305023e-05 -9.251869165e-16 -4.725960312e-05)
(5.351280387e-05 -1.150987593e-15 -4.946314216e-05)
(5.779222275e-05 -1.358546607e-15 -5.029819131e-05)
(6.207122658e-05 -1.533108638e-15 -4.934623402e-05)
(6.634968137e-05 -1.657055628e-15 -4.614687385e-05)
(7.062737867e-05 -1.709947196e-15 -4.020759817e-05)
(7.490401461e-05 -1.668730123e-15 -3.101684138e-05)
(7.917917186e-05 -1.508011513e-15 -1.806056612e-05)
(8.345230878e-05 -1.200592756e-15 -8.424212794e-07)
(8.772276088e-05 -7.182620116e-16 2.109254979e-05)
(9.198976007e-05 -3.273801918e-17 4.813089096e-05)
(9.625223599e-05 8.830484012e-16 8.055895212e-05)
(0.0001005098479 2.053619939e-15 0.0001185372741)
(0.000104761634 3.499012954e-15 0.0001620582424)
(0.0001090070983 5.232744425e-15 0.0002109145607)
(0.0001132460998 7.25975913e-15 0.000264668307)
(0.0001174789939 9.573715374e-15 0.0003226141216)
(0.000121706741 1.215463679e-14 0.0003837539696)
(0.0001259309757 1.496598697e-14 0.0004467687345)
(0.0001301539848 1.795339102e-14 0.000510000387)
(0.0001343785726 2.103954641e-14 0.0005714367798)
(0.0001386077693 2.41219569e-14 0.0006287023278)
(0.0001428443497 2.707315074e-14 0.0006790575189)
(0.0001470901421 2.973781741e-14 0.0007193944982)
(0.0001513450845 3.193197335e-14 0.0007462472465)
(0.0001556060284 3.344231564e-14 0.00075578216)
(0.0001598652325 3.402732619e-14 0.0007438085877)
(0.0001641085174 3.341814421e-14 0.0007057492072)
(0.0001683130088 3.132232789e-14 0.0006366376585)
(0.0001724443049 2.742681054e-14 0.0005310545238)
(0.00017645303 2.140514222e-14 0.0003831058927)
(0.0001802703498 1.292326957e-14 0.0001863256168)
(0.0001838026533 1.651219325e-15 -6.634604552e-05)
(0.0001869246803 -1.272730623e-14 -0.0003826572595)
(0.0001894721286 -3.049770355e-14 -0.0007709987589)
(0.0001912329468 -5.189998505e-14 -0.001240402514)
(0.0001919404198 -7.71052831e-14 -0.001800299838)
(0.0001912677288 -1.061961269e-13 -0.00246027363)
(0.0001888309204 -1.391378507e-13 -0.003229453894)
(0.0001842004606 -1.757562537e-13 -0.004115871621)
(0.0001769324248 -2.157102743e-13 -0.005125391045)
(0.0001666163472 -2.584770518e-13 -0.006260666124)
(0.0001529488739 -3.033430673e-13 -0.007519795819)
(0.0001358159295 -3.494207067e-13 -0.008895311136)
(0.0001153763611 -3.956929874e-13 -0.01037334779)
(9.210450414e-05 -4.411066675e-13 -0.01193383923)
(6.676473823e-05 -4.847283436e-13 -0.01355186246)
(4.027286363e-05 -5.259809645e-13 -0.01520104217)
(1.343903723e-05 -5.649831206e-13 -0.01685931594)
)
;

boundaryField
{
    left
    {
        type            fixedValue;
        value           uniform (0 0 0);
    }
    right
    {
        type            fixedValue;
        value           uniform (1.965920848e-08 -5.849928925e-13 -0.01768854188);
    }
    beam
    {
        type            empty;
    }
}


// ************************************************************************* //
