# Time	Qx	Qy	Qz	Mx	My	Mz	Wx	Wy	Wz
0	0	0	0	0	0	0	0	0	0
0.01	-253.087	3.85373e-18	1315.88	9.94737e-36	-2.82248e-55	-5.48088e-38	-0.960272	9.99976e-16	12.6038
0.02	-990.69	1.62713e-17	2490.17	-2.43603e-36	1.45658e-18	7.98757e-36	-3.78209	9.99907e-16	24.7835
0.03	-2150.89	3.89432e-17	3396.19	-3.71042e-36	1.45658e-18	1.51935e-35	-8.29587	9.99801e-16	36.1528
0.04	-3639.98	7.40461e-17	3934.49	-3.33951e-35	1.31092e-17	1.22706e-34	-14.2422	9.99663e-16	46.3954
0.05	-5344.55	1.23977e-16	4040.52	9.57474e-35	1.31092e-17	2.16832e-34	-21.3015	9.99498e-16	55.2855
0.06	-7144.77	1.91165e-16	3686.99	-7.16348e-35	1.45658e-18	3.24235e-34	-29.1275	9.99312e-16	62.6958
0.07	-8926.53	2.77938e-16	2881.23	-1.17308e-34	-2.18486e-17	-1.71753e-34	-37.3779	9.99106e-16	68.5937
0.08	-10590.9	3.86428e-16	1658.94	3.34753e-35	1.45658e-18	-3.42899e-34	-45.7403	9.98884e-16	73.0273
0.09	-12059.8	5.18483e-16	75.981	1.225e-34	1.45658e-18	-3.92956e-34	-53.9484	9.98646e-16	76.1069
0.1	-13278.5	6.75619e-16	-1800.2	-3.04189e-34	-2.18486e-17	-2.10622e-34	-61.7911	9.98394e-16	77.9841
0.11	-14215.2	8.5902e-16	-3898.27	1.93046e-34	1.45658e-18	4.16122e-35	-69.1135	9.98127e-16	78.8329
0.12	-14857.8	1.06959e-15	-6149.13	-2.03003e-35	2.47618e-17	2.58198e-36	-75.8135	9.97844e-16	78.8329
0.13	-15211	1.30805e-15	-8490.17	-6.82482e-35	1.45658e-18	2.87531e-35	-81.8344	9.97542e-16	78.1581
0.14	-15291.5	1.57507e-15	-10867.8	-3.13475e-35	1.45658e-18	1.24657e-34	-87.1559	9.9722e-16	76.9677
0.15	-15124.6	1.87136e-15	-13238.5	1.93383e-35	1.45658e-18	7.43013e-35	-91.7861	9.96874e-16	75.4024
0.16	-14740.7	2.19776e-15	-15568.7	-8.838e-36	1.45658e-18	-2.86066e-34	-95.7529	9.96501e-16	73.5818
0.17	-14172.6	2.55536e-15	-17834.4	-4.82686e-36	1.45658e-18	-3.81657e-34	-99.0973	9.96099e-16	71.6047
0.18	-13453.2	2.94545e-15	-20019.7	8.40527e-36	-7.61147e-26	5.07104e-35	-101.868	9.95663e-16	69.5504
0.19	-12614.5	3.36959e-15	-22115.3	-8.74504e-36	-3.64144e-19	-3.04373e-35	-104.116	9.95194e-16	67.481
0.2	-11686.6	3.82953e-15	-24117.7	-5.66093e-36	-7.63267e-26	1.34648e-34	-105.895	9.94688e-16	65.4433
0.21	-10696.7	4.32622e-15	-26027.7	7.19966e-33	-9.32209e-17	3.27778e-32	-107.254	9.94146e-16	63.4714
0.22	-9669.61	4.86397e-15	-27849	2.32097e-33	-9.32209e-17	3.61776e-31	-108.241	9.93567e-16	61.5892
0.23	-8627.26	5.44367e-15	-29587.9	3.94733e-33	-8.68126e-26	1.76186e-31	-108.9	9.92953e-16	59.8119
0.24	-7589	6.06749e-15	-31251.8	-3.86676e-33	2.33052e-17	-1.7101e-31	-109.269	9.92304e-16	58.1483
0.25	-6571.77	6.73756e-15	-32849.1	9.01255e-34	-8.41156e-26	1.36384e-31	-109.384	9.91624e-16	56.6021
0.26	-5590.43	7.4559e-15	-34388.6	2.39363e-34	-8.41215e-26	3.73809e-32	-109.276	9.90913e-16	55.1728
0.27	-4657.98	8.22439e-15	-35878.9	-6.8269e-34	3.64144e-19	3.16963e-32	-108.97	9.90176e-16	53.8572
0.28	-3785.82	9.04468e-15	-37328.5	5.64386e-34	1.82072e-18	-7.92924e-33	-108.493	9.89417e-16	52.6498
0.29	-2984.06	9.91818e-15	-38745.3	-1.6803e-33	-6.91874e-18	-1.92361e-32	-107.862	9.88638e-16	51.5436
0.3	-2261.7	1.0846e-14	-40136.3	-7.16813e-34	-1.2745e-17	-4.14822e-32	-107.096	9.87845e-16	50.5305
0.31	-1626.82	1.18288e-14	-41508.1	-1.19772e-33	-1.2745e-17	2.24126e-32	-106.211	9.87042e-16	49.6019
0.32	-1086.82	1.28671e-14	-42866.2	-6.52489e-35	-1.2745e-17	2.15608e-33	-105.218	9.86234e-16	48.7484
0.33	-648.484	1.39606e-14	-44215.2	-6.06814e-37	-9.51277e-26	8.1303e-36	-104.13	9.85426e-16	47.9607
0.34	-318.137	1.5109e-14	-45558.9	-1.32266e-37	-9.4958e-26	-6.19435e-36	-102.956	9.84623e-16	47.2293
0.35	-101.737	1.63111e-14	-46899.9	7.30373e-37	-9.4958e-26	2.60222e-35	-101.704	9.83831e-16	46.5449
0.36	-4.93343	1.75655e-14	-48240	-3.36686e-36	-7.11314e-22	-2.2614e-35	-100.382	9.83053e-16	45.8981
0.37	-33.1168	1.88699e-14	-49580	4.23231e-37	1.7771e-22	-5.0642e-36	-98.9956	9.82297e-16	45.2798
0.38	-191.448	2.02218e-14	-50919.6	-1.39707e-37	-9.51275e-26	5.66716e-36	-97.5515	9.81566e-16	44.6812
0.39	-484.87	2.1618e-14	-52257.8	-1.66468e-36	-9.51223e-26	-1.02962e-35	-96.0545	9.80867e-16	44.0937
0.4	-918.1	2.30544e-14	-53592.1	-8.82585e-36	4.43562e-23	-1.38477e-35	-94.5096	9.80204e-16	43.5088
0.41	-1495.61	2.45268e-14	-54919.6	1.07062e-35	-1.37808e-21	-2.88815e-35	-92.9215	9.79582e-16	42.9185
0.42	-2221.61	2.603e-14	-56236.1	6.88654e-36	-1.37808e-21	-1.04063e-35	-91.2945	9.79007e-16	42.3149
0.43	-3099.98	2.75582e-14	-57536.5	-2.411e-35	-1.37808e-21	-1.92803e-34	-89.6329	9.78482e-16	41.6907
0.44	-4134.22	2.91052e-14	-58814.9	-5.9418e-35	2.13809e-20	-8.99649e-35	-87.9412	9.78014e-16	41.0387
0.45	-5327.43	3.0664e-14	-60064.2	7.39713e-36	2.13809e-20	5.59011e-36	-86.2237	9.77605e-16	40.352
0.46	-6682.17	3.22272e-14	-61276.7	1.8844e-34	2.13809e-20	6.78068e-36	-84.485	9.7726e-16	39.6242
0.47	-8200.45	3.37864e-14	-62443.8	-1.19521e-34	2.13809e-20	-3.49977e-34	-82.7298	9.76984e-16	38.8492
0.48	-9883.61	3.53332e-14	-63556.1	-8.19932e-35	2.13809e-20	-2.38279e-34	-80.9628	9.76779e-16	38.0212
0.49	-11732.3	3.68584e-14	-64603.3	-4.00141e-34	3.85525e-19	-6.71912e-34	-79.1893	9.76649e-16	37.1351
0.5	-13746.2	3.83522e-14	-65574.7	-6.09815e-35	-3.42763e-19	2.62114e-34	-77.4145	9.76598e-16	36.1861
0.51	-15924.3	3.98047e-14	-66458.8	1.2455e-34	2.13809e-20	3.04421e-34	-75.6441	9.76627e-16	35.1697
0.52	-18264.4	4.12054e-14	-67243.7	-8.38567e-35	2.13809e-20	1.49331e-34	-73.8838	9.7674e-16	34.0823
0.53	-20763.4	4.25437e-14	-67917	-3.80297e-34	1.47796e-18	-9.0241e-34	-72.1398	9.76938e-16	32.9205
0.54	-23416.9	4.38087e-14	-68466.2	-6.51506e-36	1.47796e-18	7.64285e-35	-70.4184	9.77223e-16	31.6816
0.55	-26219.6	4.49894e-14	-68878.3	4.95107e-34	2.13809e-20	-8.58978e-34	-68.7259	9.77595e-16	30.3637
0.56	-29164.7	4.60747e-14	-69140.6	-2.32268e-34	2.93453e-18	-1.18699e-33	-67.0691	9.78056e-16	28.9652
0.57	-32244.2	4.70538e-14	-69240.3	1.31559e-33	-2.89177e-18	1.93814e-33	-65.4548	9.78605e-16	27.4854
0.58	-35448.8	4.79159e-14	-69164.9	-1.60944e-34	-2.89177e-18	5.73375e-34	-63.8897	9.79243e-16	25.9243
0.59	-38768	4.86506e-14	-68902.3	-1.42056e-33	2.13809e-20	-1.4403e-33	-62.3806	9.79967e-16	24.2825
0.6	-42190	4.92479e-14	-68440.9	1.67868e-34	2.13809e-20	-2.94264e-34	-60.9345	9.80778e-16	22.5613
0.61	-45701.6	4.96983e-14	-67770.1	3.40866e-34	-5.80493e-18	-1.79832e-34	-59.5581	9.81672e-16	20.7628
0.62	-49288.7	4.99929e-14	-66879.8	-1.04465e-33	2.13809e-20	-1.2916e-33	-58.2577	9.82648e-16	18.8898
0.63	-52935.8	5.01238e-14	-65761.2	9.17328e-34	-5.80493e-18	2.21539e-33	-57.0398	9.83703e-16	16.9458
0.64	-56626.7	5.00837e-14	-64406.5	-1.07756e-33	2.13809e-20	-1.47244e-33	-55.9104	9.84832e-16	14.9349
0.65	-60343.9	4.98665e-14	-62809.4	1.74181e-34	1.1674e-17	2.97077e-34	-54.875	9.86033e-16	12.8621
0.66	-64069.5	4.94668e-14	-60965	-7.60487e-34	1.1674e-17	-1.39055e-33	-53.9388	9.87301e-16	10.7327
0.67	-67785	4.88807e-14	-58869.7	-1.20218e-34	2.13809e-20	-2.0177e-34	-53.1064	9.88631e-16	8.55268
0.68	-71471.2	4.81053e-14	-56521.9	-1.37332e-33	1.1674e-17	-1.25057e-33	-52.3819	9.90018e-16	6.32868
0.69	-75108.7	4.71389e-14	-53921.5	-7.01399e-34	2.13809e-20	-6.30597e-34	-51.7689	9.91457e-16	4.06762
0.7	-78678.3	4.5981e-14	-51070.2	1.06104e-33	-1.16312e-17	1.48902e-33	-51.2701	9.92943e-16	1.77687
0.71	-82160.6	4.46325e-14	-47971.3	1.58221e-34	2.13809e-20	-1.67321e-34	-50.8875	9.94468e-16	-0.535921
0.72	-85536.8	4.30952e-14	-44630.2	1.09326e-34	2.13809e-20	5.44332e-34	-50.6226	9.96029e-16	-2.86285
0.73	-88788.2	4.13724e-14	-41053.6	2.4047e-35	2.13809e-20	-1.18245e-33	-50.476	9.97618e-16	-5.19588
0.74	-91897.4	3.94684e-14	-37250.3	-1.52423e-34	2.33266e-17	2.21964e-34	-50.4476	9.99229e-16	-7.52692
0.75	-94847.3	3.73884e-14	-33230.2	2.12487e-34	2.33266e-17	3.00087e-34	-50.5364	1.00086e-15	-9.84787
0.76	-97622.1	3.51389e-14	-29005.2	1.01145e-33	2.13809e-20	-1.41118e-34	-50.7408	1.0025e-15	-12.1508
0.77	-100207	3.27269e-14	-24588.2	-2.32432e-34	2.13809e-20	-1.23103e-35	-51.0585	1.00414e-15	-14.4279
0.78	-102590	3.01604e-14	-19993.4	-2.33718e-33	2.13809e-20	-4.95246e-34	-51.4864	1.00579e-15	-16.6715
0.79	-104758	2.74479e-14	-15236.2	-3.71911e-33	2.13809e-20	-8.29524e-34	-52.0208	1.00743e-15	-18.8747
0.8	-106701	2.45985e-14	-10332.7	7.99353e-34	2.13809e-20	7.41179e-35	-52.6574	1.00906e-15	-21.0304
0.81	-108411	2.16217e-14	-5299.86	2.21851e-33	2.33266e-17	-8.62268e-34	-53.3914	1.01067e-15	-23.1324
0.82	-109880	1.85271e-14	-155.105	-9.51986e-34	-2.32838e-17	1.03976e-33	-54.2175	1.01227e-15	-25.1748
0.83	-111104	1.53246e-14	5083.75	-1.10506e-33	2.13809e-20	-1.0215e-33	-55.1298	1.01385e-15	-27.1523
0.84	-112079	1.20241e-14	10398.7	-6.43874e-34	2.13809e-20	9.56142e-34	-56.1222	1.0154e-15	-29.0601
0.85	-112803	8.63546e-15	15771.9	-1.59824e-33	2.33266e-17	-9.65002e-34	-57.1885	1.01692e-15	-30.8941
0.86	-113276	5.16824e-15	21185.4	1.0664e-33	2.13809e-20	2.19264e-34	-58.3218	1.01841e-15	-32.6508
0.87	-113500	1.6318e-15	26621.8	3.37413e-33	2.13809e-20	-9.66004e-34	-59.5154	1.01987e-15	-34.3271
0.88	-113477	-1.96486e-15	32064.2	-3.79103e-34	2.13809e-20	-9.87294e-35	-60.7626	1.0213e-15	-35.9208
0.89	-113212	-5.61318e-15	37496.1	1.98902e-33	2.13809e-20	-3.1473e-34	-62.0562	1.02269e-15	-37.4301
0.9	-112711	-9.30509e-15	42902	-2.26611e-33	-2.32838e-17	-7.29922e-35	-63.3896	1.02404e-15	-38.854
0.91	-111981	-1.3033e-14	48267.1	2.89586e-33	2.33266e-17	-1.05067e-33	-64.7558	1.02536e-15	-40.1917
0.92	-111029	-1.67901e-14	53577.5	3.47177e-33	2.13809e-20	-1.80036e-33	-66.1484	1.02664e-15	-41.4434
0.93	-109865	-2.05698e-14	58820.5	-6.54209e-33	-2.32838e-17	4.16132e-34	-67.5607	1.02788e-15	-42.6093
0.94	-108499	-2.43665e-14	63984.3	-1.36567e-33	2.13809e-20	-6.45104e-34	-68.9866	1.02909e-15	-43.6905
0.95	-106940	-2.8175e-14	69058.2	-5.63439e-33	2.13809e-20	2.18776e-33	-70.4202	1.03026e-15	-44.6882
0.96	-105202	-3.19909e-14	74032.6	-5.07023e-33	2.13809e-20	2.19688e-33	-71.8557	1.0314e-15	-45.6043
0.97	-103294	-3.58373e-14	78899	-9.60612e-32	2.13809e-20	6.53922e-31	-73.2878	1.03251e-15	-46.4407
0.98	-101230	-3.96567e-14	83650.3	-3.75364e-32	2.13809e-20	-1.64636e-31	-74.7114	1.03358e-15	-47.1999
0.99	-99021.6	-4.34735e-14	88280.2	-9.65914e-32	2.13809e-20	8.74653e-31	-76.1219	1.03462e-15	-47.8844
1	-96680.9	-4.72855e-14	92783.6	-2.18812e-32	2.13809e-20	-1.57983e-32	-77.5149	1.03563e-15	-48.4972
