# Time	Qx	Qy	Qz	Mx	My	Mz	Wx	Wy	Wz
0	0	0	0	0	0	0	0	0	0
0.01	-2.01625e-24	-2.27475e-24	0.0001	3.90851e-24	-1.05013e-24	0.1047	-3.57653	62.6178	39.8727
0.02	4.54949e-24	7.85822e-24	0.0002	-7.9293e-24	4.73044e-24	0.2094	-14.1355	124.046	78.9898
0.03	-2.15067e-23	2.15067e-23	0.0003	-4.30392e-23	1.72674e-23	0.3141	-31.1937	183.212	116.665
0.04	-3.55688e-23	-9.26442e-23	0.0004	3.33764e-23	2.06795e-25	0.4188	-54.0304	239.243	152.335
0.05	5.62483e-23	-4.63221e-23	0.0005	-2.16618e-22	1.65436e-24	0.5235	-81.7875	291.516	185.585
0.06	-3.97047e-23	2.64698e-22	0.0006	5.79026e-23	7.52734e-23	0.6282	-113.568	339.655	216.151
0.07	2.24993e-22	-2.64698e-23	0.0007	-3.06057e-23	6.61744e-24	0.7329	-148.512	383.503	243.905
0.08	-6.85009e-25	-1.34417e-24	0.0008	-5.53339e-26	-3.11001e-26	0.8376	-185.852	423.073	268.823
0.09	-3.61892e-25	-1.44757e-24	0.0009	8.48183e-27	-4.16014e-26	0.9423	-224.934	458.499	290.955
0.1	-2.06795e-25	1.70606e-24	0.001	-1.14707e-25	-1.35305e-25	1.047	-265.228	489.989	310.4
0.11	-8.78879e-25	-1.16322e-25	0.0011	-1.77715e-26	4.6852e-26	1.1517	-306.318	517.791	327.281
0.12	2.58494e-25	-3.13101e-24	0.0012	-1.61559e-26	2.67582e-26	1.2564	-347.89	542.163	341.731
0.13	5.16988e-26	3.05023e-24	0.0013	-7.4317e-26	5.25874e-25	1.3611	-389.718	563.357	353.878
0.14	-1.03398e-24	1.49926e-24	0.0014	9.69352e-26	-3.87741e-26	1.4658	-431.648	581.603	363.838
0.15	-1.13737e-24	-1.34417e-24	0.0015	3.23117e-27	-2.26182e-26	1.5705	-473.584	597.107	371.707
0.16	-1.08567e-24	-1.29247e-24	0.0016	-2.00333e-25	8.72417e-26	1.6752	-515.476	610.04	377.563
0.17	-1.49926e-24	-7.23783e-25	0.0017	-3.90972e-25	1.29247e-26	1.7799	-557.314	620.54	381.456
0.18	-5.42837e-25	-1.13737e-24	0.0018	-5.7838e-25	2.84343e-25	1.8846	-599.116	628.706	383.411
0.19	-1.24077e-24	0	0.0019	-3.68354e-25	-1.80946e-25	1.9893	-640.922	634.596	383.423
0.2	1.86116e-24	-3.10193e-25	0.002	-1.48634e-25	-2.32645e-25	2.094	-682.793	638.227	381.453
0.21	-6.10046e-24	5.58347e-24	0.0021	3.52905e-25	0	2.1987	-724.802	639.565	377.425
0.22	-4.96308e-24	6.41065e-24	0.0022	2.16489e-25	3.36042e-25	2.3034	-767.033	638.524	371.22
0.23	-1.03398e-23	4.96308e-24	0.0023	-2.11965e-24	-2.84343e-25	2.4081	-809.571	634.948	362.67
0.24	1.03398e-23	-8.27181e-24	0.0024	2.67541e-24	4.91138e-25	2.5128	-852.494	628.607	351.545
0.25	-3.92911e-23	7.08273e-24	0.0025	3.56722e-24	1.39587e-24	2.6175	-895.861	619.172	337.546
0.26	3.92911e-23	-2.89513e-24	0.0026	3.61892e-25	1.49926e-24	2.7222	-939.68	606.193	320.29
0.27	2.15067e-23	-8.27181e-25	0.0027	3.61892e-24	1.65436e-24	2.8269	-983.866	589.076	299.304
0.28	-7.19647e-23	-2.48154e-24	0.0028	-1.03398e-25	-6.64329e-24	2.9316	-1028.16	567.061	274.037
0.29	1.91079e-22	7.44463e-23	0.0029	0	1.34417e-23	3.0363	-1071.98	539.245	243.907
0.3	2.0845e-22	4.63221e-23	0.003	-1.03398e-24	6.72084e-24	3.141	-1114.25	504.693	208.46
0.31	1.20768e-22	7.61006e-23	0.0031	-4.54949e-24	-6.82424e-24	3.2457	-1153.13	462.767	167.687
0.32	2.48154e-23	-5.29396e-23	0.0032	3.35008e-23	-1.8198e-23	3.3504	-1186.02	413.749	122.533
0.33	1.19114e-22	5.9557e-23	0.0033	6.10046e-24	-4.1359e-25	3.4551	-1210.12	359.503	75.2629
0.34	-4.46678e-23	-1.52201e-22	0.0034	1.13737e-24	-1.36485e-23	3.5598	-1223.54	303.448	29.1021
0.35	-1.65436e-23	-2.89513e-23	0.0035	1.85082e-23	-5.58347e-24	3.6645	-1226.3	249.387	-12.9483
0.36	-1.07533e-23	1.32349e-23	0.0036	9.92617e-24	-3.30872e-24	3.7692	-1220.06	200.137	-49.1083
0.37	3.10193e-24	-2.93649e-23	0.0037	9.20238e-24	-4.4461e-24	3.8739	-1207.11	157.068	-78.8953
0.38	9.09899e-24	-5.33531e-23	0.0038	-1.03398e-24	2.99853e-24	3.9786	-1189.58	120.447	-102.637
0.39	-1.48893e-23	9.05763e-23	0.0039	2.17135e-24	8.95682e-24	4.0833	-1169.16	89.9453	-120.996
0.4	4.79765e-23	-4.21862e-23	0.004	1.75776e-24	-1.12186e-23	4.188	-1147.09	64.9965	-134.697
0.41	-8.51996e-23	4.54949e-23	0.0041	1.29247e-24	1.65436e-24	4.2927	-1124.25	44.983	-144.405
0.42	9.67801e-23	-7.36191e-23	0.0042	2.32645e-24	-1.44757e-24	4.3974	-1101.24	29.3198	-150.694
0.43	-8.85083e-23	2.48154e-23	0.0043	-4.1359e-24	3.30872e-24	4.5021	-1078.52	17.4828	-154.048
0.44	1.13324e-22	-3.97047e-23	0.0044	1.24077e-24	2.27475e-24	4.6068	-1056.38	9.01285	-154.869
0.45	-9.26442e-23	1.65436e-23	0.0045	3.82571e-24	2.94683e-24	4.7115	-1035.06	3.5106	-153.494
0.46	4.09454e-23	-4.96308e-24	0.0046	1.96455e-24	-2.58494e-25	4.8162	-1014.73	0.62799	-150.21
0.47	-6.20385e-24	1.65436e-24	0.0047	-4.1359e-25	-1.22575e-23	4.9209	-995.505	0.0596934	-145.262
0.48	-1.03398e-22	4.96308e-24	0.0048	4.1359e-25	-1.24594e-23	5.0256	-977.491	1.53536	-138.862
0.49	-7.61006e-23	8.27181e-24	0.0049	8.27181e-25	-4.75629e-24	5.1303	-960.758	4.81312	-131.2
0.5	-5.66619e-23	-1.65436e-23	0.005	-2.99853e-24	1.19941e-23	5.235	-945.362	9.67418	-122.445
0.51	7.44463e-23	2.48154e-23	0.0051	3.30872e-24	9.51258e-24	5.3397	-931.345	15.9186	-112.753
0.52	5.21124e-23	-3.30872e-24	0.0052	-4.2393e-24	-2.27475e-24	5.4444	-918.739	23.3617	-102.265
0.53	-2.81241e-23	-3.30872e-24	0.0053	7.14736e-24	-1.65436e-24	5.5491	-907.567	31.8317	-91.1156
0.54	-8.27181e-24	1.48893e-23	0.0054	-2.58494e-24	4.75629e-24	5.6538	-897.842	41.1672	-79.4315
0.55	2.81241e-23	2.31611e-23	0.0055	-1.07533e-23	3.30872e-24	5.7585	-889.572	51.2159	-67.3328
0.56	0	-4.30134e-23	0.0056	-2.48154e-24	-6.20385e-25	5.8632	-882.757	61.8328	-54.9353
0.57	-2.15067e-23	-2.81241e-23	0.0057	1.7164e-23	-5.79026e-24	5.9679	-877.39	72.88	-42.3507
0.58	1.15805e-23	3.39144e-23	0.0058	1.03398e-23	5.16988e-24	6.0726	-873.461	84.2248	-29.6873
0.59	0	4.71493e-23	0.0059	-1.65436e-23	-2.06795e-25	6.1773	-870.953	95.7402	-17.0503
0.6	3.30872e-24	5.2526e-23	0.006	-1.15805e-23	5.58347e-24	6.282	-869.843	107.303	-4.54282
0.61	-4.96308e-24	1.17873e-23	0.0061	-3.30872e-24	-1.59749e-23	6.3867	-870.103	118.795	7.73455
0.62	-1.32349e-23	7.83754e-23	0.0062	-9.09899e-24	-6.92764e-24	6.4914	-871.702	130.101	19.683
0.63	4.96308e-24	6.20385e-23	0.0063	-8.27181e-24	4.3427e-24	6.5961	-874.603	141.108	31.2055
0.64	-1.32349e-23	-3.72231e-24	0.0064	-1.65436e-24	-2.19203e-23	6.7008	-878.764	151.707	42.2063
0.65	8.27181e-25	-4.96308e-24	0.0065	1.65436e-23	-2.7297e-23	6.8055	-884.137	161.79	52.5911
0.66	1.28213e-23	1.65436e-24	0.0066	-1.48893e-23	3.06057e-23	6.9102	-890.67	171.253	62.2665
0.67	-1.15805e-23	1.24077e-23	0.0067	1.65436e-24	-3.39144e-23	7.0149	-898.305	179.991	71.1401
0.68	-1.32349e-23	2.7297e-23	0.0068	-1.48893e-23	0	7.1196	-906.977	187.901	79.1202
0.69	2.15067e-23	6.61744e-24	0.0069	-5.87298e-23	4.96308e-24	7.2243	-916.615	194.88	86.116
0.7	3.30872e-23	-6.61744e-24	0.007	-3.51552e-23	4.96308e-24	7.329	-927.138	200.825	92.0377
0.71	5.62483e-23	-6.61744e-24	0.0071	4.9424e-23	-8.27181e-24	7.4337	-938.457	205.637	96.7967
0.72	-2.31611e-23	8.27181e-23	0.0072	9.09899e-24	-6.61744e-24	7.5384	-950.469	209.213	100.307
0.73	7.27919e-23	-2.31611e-23	0.0073	-6.61744e-24	-3.97047e-23	7.6431	-963.059	211.455	102.484
0.74	-4.49779e-24	8.27181e-25	0.0074	-2.58494e-25	1.55096e-25	7.7478	-976.094	212.268	103.251
0.75	3.15363e-24	4.1359e-25	0.0075	-1.11152e-24	3.10193e-25	7.8525	-989.425	211.561	102.537
0.76	-4.1876e-24	0	0.0076	-2.17135e-24	-5.16988e-26	7.9572	-1002.88	209.255	100.285
0.77	-7.23783e-24	-6.20385e-25	0.0077	-4.04543e-24	3.61892e-25	8.0619	-1016.25	205.286	96.4543
0.78	-1.48634e-24	-5.16988e-25	0.0078	-1.32478e-24	-5.16988e-25	8.1666	-1029.33	199.611	91.0287
0.79	-1.59943e-24	-3.6593e-25	0.0079	9.04729e-25	-6.20385e-25	8.2713	-1041.85	192.221	84.0263
0.8	2.01625e-24	1.55096e-24	0.008	-6.20385e-25	-1.29247e-24	8.376	-1053.56	183.15	75.5078
0.81	-5.06648e-24	-3.51552e-24	0.0081	8.27181e-25	3.15363e-24	8.4807	-1064.17	172.485	65.5867
0.82	-6.20385e-24	-6.20385e-24	0.0082	-8.27181e-25	-5.71918e-25	8.5854	-1073.38	160.38	54.436
0.83	2.06795e-24	2.06795e-24	0.0083	-4.1359e-25	1.70606e-24	8.6901	-1080.95	147.055	42.291
0.84	6.61744e-24	2.77106e-23	0.0084	1.65436e-24	4.1359e-25	8.7948	-1086.64	132.8	29.444
0.85	-8.27181e-25	-2.35746e-23	0.0085	-1.96455e-24	-2.06795e-25	8.8995	-1090.31	117.958	16.2304
0.86	0	2.10931e-23	0.0086	2.17135e-24	-2.68834e-24	9.0042	-1091.87	102.908	3.00739
0.87	-8.27181e-25	-1.65436e-23	0.0087	2.27475e-24	0	9.1089	-1091.33	88.0314	-9.87281
0.88	1.65436e-24	9.51258e-24	0.0088	-4.2393e-24	-1.65436e-24	9.2136	-1088.8	73.6911	-22.0876
0.89	3.97047e-23	-5.79026e-24	0.0089	5.29396e-23	3.07711e-22	9.3183	-1084.45	60.2031	-33.3641
0.9	-1.98523e-23	1.65436e-23	0.009	5.29396e-23	3.24255e-22	9.423	-1078.5	47.8231	-43.4902
0.91	-5.9557e-23	8.93355e-23	0.0091	2.64698e-23	2.03486e-22	9.5277	-1071.2	36.7408	-52.3175
0.92	-1.32349e-23	8.6854e-24	0.0092	1.24077e-24	-5.53177e-24	9.6324	-1062.83	27.0813	-59.7567
0.93	3.72231e-24	-2.06795e-24	0.0093	8.27181e-25	-6.30725e-24	9.7371	-1053.63	18.9132	-65.7699
0.94	1.24077e-24	3.30872e-24	0.0094	8.27181e-25	1.44757e-24	9.8418	-1043.85	12.2573	-70.3598
0.95	-1.11669e-23	-2.06795e-24	0.0095	-1.44757e-24	-1.44757e-24	9.9465	-1033.73	7.0977	-73.5605
0.96	-2.27475e-24	-2.06795e-24	0.0096	-6.20385e-25	-2.68834e-24	10.0512	-1023.45	3.3902	-75.4288
0.97	-8.27181e-25	4.1359e-25	0.0097	1.86116e-24	-6.20385e-24	10.1559	-1013.2	1.0706	-76.037
0.98	4.47195e-24	-2.06795e-25	0.0098	-5.16988e-25	1.65436e-24	10.2606	-1003.14	0.060682	-75.4675
0.99	-2.53809e-24	1.03398e-25	0.0099	7.96161e-24	0	10.3653	-993.386	0.272896	-73.8094
1	-1.55096e-25	-5.16988e-26	0.01	-5.27328e-24	1.24077e-24	10.47	-984.064	1.61381	-71.1549
