# Time	Qx	Qy	Qz	Mx	My	Mz	Wx	Wy	Wz
0	0	0	0	0	0	0	0	0	0
0.01	7.36708e-25	8.78879e-25	1.30937e-41	-7.00649e-46	9.86164e-44	0.2094	-10.491	124.98	1e-15
0.02	-1.42172e-25	9.38333e-24	1.23314e-43	5.21108e-45	-5.80225e-45	0.4188	-41.568	246.035	1e-15
0.03	4.1359e-25	-1.84048e-23	8.18358e-43	-2.06692e-44	1.04222e-44	0.6282	-92.0617	359.403	1e-15
0.04	4.1359e-25	4.54949e-24	-4.70836e-43	2.99528e-44	6.30584e-45	0.8376	-160.081	461.646	1e-15
0.05	1.0986e-25	4.52364e-26	-2.46629e-43	-8.32021e-46	7.8823e-45	1.047	-243.099	549.784	1e-15
0.06	-1.44757e-24	2.55909e-24	3.40796e-42	1.37678e-43	-1.12104e-44	1.2564	-338.063	621.424	1e-15
0.07	9.71937e-24	-1.58715e-23	-3.81153e-43	1.14731e-44	4.55422e-45	1.4658	-441.531	674.845	1e-15
0.08	-4.1359e-24	5.99706e-24	7.51096e-43	-2.27711e-45	3.50325e-45	1.6752	-549.826	709.064	1e-15
0.09	2.23597e-24	2.58494e-25	5.7173e-43	2.43476e-44	1.31372e-44	1.8846	-659.188	723.861	1e-15
0.1	1.19941e-23	-2.89513e-24	1.21072e-42	7.91734e-44	3.71344e-44	2.094	-765.943	719.772	1e-15
0.11	1.31832e-23	-2.58494e-24	-3.92364e-43	3.50325e-46	1.52391e-44	2.3034	-866.651	698.048	1e-15
0.12	2.21012e-24	1.83531e-24	-6.05361e-43	0	-5.57016e-44	2.5128	-958.251	660.582	1e-15
0.13	-8.99559e-24	-3.10193e-24	3.05483e-43	-7.00649e-46	1.13965e-44	2.7222	-1038.18	609.805	1e-15
0.14	-1.62851e-24	-3.61892e-25	-6.72623e-44	-4.90454e-45	2.06692e-44	2.9316	-1104.46	548.569	1e-15
0.15	2.06795e-25	4.1359e-25	-4.45613e-43	4.55422e-45	-3.50325e-45	3.141	-1155.77	480.001	1e-15
0.16	-6.07461e-25	-2.1972e-25	-3.00438e-42	5.74532e-44	-5.32493e-44	3.3504	-1191.5	407.361	1e-15
0.17	-9.82277e-25	-1.42172e-25	-7.28675e-43	8.05747e-45	1.75162e-45	3.5598	-1211.7	333.888	1e-15
0.18	-6.20385e-25	-1.1503e-24	4.25995e-43	-1.89175e-44	-8.40779e-45	3.7692	-1217.1	262.659	1e-15
0.19	2.58494e-26	-7.01165e-25	6.10966e-43	9.91309e-45	0	3.9786	-1209.01	196.453	1e-15
0.2	-2.32645e-25	1.44757e-24	2.55036e-43	-9.37118e-45	-1.75162e-45	4.188	-1189.26	137.643	1e-15
0.21	-1.44757e-24	1.60266e-24	-4.70836e-43	1.96182e-44	1.47136e-44	4.3974	-1160.07	88.1025	1e-15
0.22	-2.79173e-24	1.29247e-24	9.86514e-43	-5.60519e-44	-8.40779e-45	4.6068	-1123.94	49.1441	1e-15
0.23	-1.65436e-24	-2.58494e-25	-3.50325e-45	-3.50325e-46	-7.00649e-46	4.8162	-1083.5	21.4873	1e-15
0.24	-1.0986e-25	-1.05013e-26	-4.82047e-43	4.90454e-45	1.41881e-44	5.0256	-1041.41	5.2549	1e-15
0.25	-1.55462e-24	-7.75482e-26	-6.22177e-43	4.2039e-45	1.43633e-44	5.235	-1000.19	0.000111787	1e-15
0.26	-1.22785e-25	2.58494e-26	2.35418e-43	2.10195e-45	-2.67998e-44	5.4444	-962.131	4.76023	1e-15
0.27	-1.31832e-24	-4.65289e-25	5.60519e-43	1.05097e-44	-9.80909e-45	5.6538	-929.185	18.1338	1e-15
0.28	1.29247e-25	-5.16988e-26	8.51989e-43	-7.00649e-46	1.05097e-44	5.8632	-902.883	38.3766	1e-15
0.29	-4.05916e-26	-1.29247e-26	-1.31722e-43	2.27711e-45	-6.13068e-45	6.0726	-884.287	63.5104	1e-15
0.3	-5.16988e-26	-3.23117e-26	1.4013e-44	-1.70783e-45	2.62743e-46	6.282	-873.957	91.439	1e-15
0.31	5.16988e-26	3.39273e-25	1.62551e-43	-1.42757e-44	7.00649e-46	6.4914	-871.955	120.065	1e-15
0.32	-3.87741e-26	-3.87741e-26	-6.72623e-44	5.76284e-44	2.8026e-45	6.7008	-877.87	147.402	1e-15
0.33	-3.87741e-26	6.46235e-26	4.2039e-45	0	-3.50325e-46	6.9102	-890.865	171.672	1e-15
0.34	-1.42172e-25	2.58494e-26	3.69943e-43	2.76756e-44	1.1911e-44	7.1196	-909.748	191.395	1e-15
0.35	-2.03564e-25	3.55429e-25	4.70836e-43	1.4013e-44	2.8026e-45	7.329	-933.057	205.448	1e-15
0.36	-3.23117e-25	1.03398e-25	7.1186e-43	-1.54143e-44	-3.50325e-44	7.5384	-959.158	213.112	1e-15
0.37	1.85793e-25	1.29247e-26	-7.14662e-44	7.00649e-46	5.25487e-46	7.7478	-986.342	214.089	1e-15
0.38	1.5025e-25	-1.29247e-26	-1.68156e-43	0	-1.80089e-45	7.9572	-1012.93	208.493	1e-15
0.39	3.74816e-25	5.16988e-26	-4.48416e-44	2.8026e-45	-1.24365e-44	8.1666	-1037.36	196.829	1e-15
0.4	-8.07794e-27	-1.9387e-26	-1.12104e-43	5.60519e-45	-1.75162e-44	8.376	-1058.28	179.939	1e-15
0.41	8.40105e-26	5.25066e-26	7.00649e-46	1.91584e-46	3.28429e-47	8.5854	-1074.6	158.939	1e-15
0.42	2.26182e-26	3.39273e-26	-8.40779e-45	-2.97776e-45	1.05097e-45	8.7948	-1085.58	135.142	1e-15
0.43	-1.29247e-26	9.69352e-27	-4.28797e-43	2.62743e-45	-2.10195e-45	9.0042	-1090.79	109.97	1e-15
0.44	0	5.493e-25	-9.52883e-44	-2.03188e-44	2.10195e-45	9.2136	-1090.19	84.8686	1e-15
0.45	4.52364e-26	-5.00832e-26	1.45735e-43	6.30584e-45	-7.00649e-46	9.423	-1084.08	61.222	1e-15
0.46	4.84676e-27	-1.45403e-26	1.96182e-44	2.36469e-45	5.25487e-46	9.6324	-1073.07	40.2718	1e-15
0.47	-1.29247e-26	-6.46235e-27	8.68805e-44	1.05097e-45	-7.00649e-46	9.8418	-1058.03	23.0515	1e-15
0.48	1.9387e-26	-8.40105e-26	-1.26117e-43	1.75162e-45	-3.85357e-45	10.0512	-1040.06	10.3338	1e-15
0.49	-1.03398e-25	1.16322e-25	-3.41917e-43	-2.8026e-45	-4.90454e-45	10.2606	-1020.35	2.59543	1e-15
0.5	3.11947e-26	-1.29247e-26	4.44089e-18	5.77779e-34	0	10.47	-1000.19	0.000223353	-3.26318e-14
0.51	-8.96651e-26	-3.10193e-25	0.0002	-1.85288e-22	-2.64698e-22	10.47	-1000.18	0.000207279	-1.51465
0.52	-3.84671e-24	2.06795e-25	0.0004	-5.691e-22	5.29396e-23	10.47	-1000.16	0.000162662	-3.02914
0.53	8.82111e-25	-4.1359e-25	0.0006	-3.97047e-22	1.58819e-22	10.47	-1000.13	0.000100311	-4.54332
0.54	-6.46396e-24	1.65436e-24	0.0008	8.47033e-22	-5.29396e-23	10.47	-1000.08	3.82259e-05	-6.05703
0.55	-2.07765e-24	-4.1359e-25	0.001	7.01449e-22	-2.64698e-22	10.47	-1000.02	1.57854e-06	-7.57011
0.56	5.05194e-24	-4.1359e-24	0.0012	-6.4851e-22	-2.11758e-22	10.47	-999.94	2.26787e-05	-9.0824
0.57	5.47684e-24	1.24077e-24	0.0014	-6.08805e-22	-1.05879e-22	10.47	-999.85	0.000140936	-10.5937
0.58	2.18104e-24	-1.65436e-24	0.0016	-1.04556e-21	2.64698e-22	10.47	-999.747	0.000402812	-12.1039
0.59	-1.13091e-24	2.89513e-24	0.0018	-1.32349e-23	-3.17637e-22	10.47	-999.63	0.000861759	-13.6129
0.6	2.14873e-25	-1.24077e-24	0.002	-2.51463e-22	-1.05879e-22	10.47	-999.499	0.00157815	-15.1203
0.61	3.2958e-24	5.79026e-24	0.0022	-7.94093e-23	0	10.47	-999.355	0.00261922	-16.6261
0.62	8.17972e-24	4.54949e-24	0.0024	0	-3.70577e-22	10.47	-999.197	0.00405894	-18.13
0.63	2.82728e-24	2.06795e-24	0.0026	-6.61744e-23	-1.05879e-22	10.47	-999.025	0.00597794	-19.6319
0.64	-3.12455e-24	7.03104e-24	0.0028	-2.64698e-23	2.64698e-22	10.47	-998.84	0.00846342	-21.1316
0.65	-3.46059e-24	-4.1359e-25	0.003	1.32349e-22	1.05879e-22	10.47	-998.642	0.011609	-22.6288
0.66	-6.75315e-25	-4.1359e-24	0.0032	-9.39677e-22	-2.11758e-22	10.47	-998.43	0.0155145	-24.1233
0.67	9.37041e-26	-1.65436e-24	0.0034	-2.64698e-22	5.29396e-23	10.47	-998.204	0.020286	-25.6149
0.68	-2.00979e-24	-5.79026e-24	0.0036	1.58819e-22	-1.05879e-22	10.47	-997.966	0.0260354	-27.1034
0.69	3.46705e-24	-7.65142e-24	0.0038	-1.72054e-22	-2.64698e-22	10.47	-997.714	0.0328807	-28.5886
0.7	-2.67541e-24	-6.30725e-24	0.004	3.57342e-22	-1.05879e-22	10.47	-997.449	0.0409452	-30.0701
0.71	-6.75962e-24	1.00813e-24	0.0042	-4.76456e-22	-1.58819e-22	10.47	-997.171	0.0503576	-31.5477
0.72	-1.58457e-23	-9.61597e-24	0.0044	-6.88214e-22	5.29396e-23	10.47	-996.88	0.0612521	-33.0212
0.73	5.48007e-24	-4.96308e-24	0.0046	-2.77933e-22	-2.11758e-22	10.47	-996.576	0.0737676	-34.4902
0.74	-1.20458e-23	5.37667e-24	0.0048	-5.29396e-23	-3.17637e-22	10.47	-996.26	0.0880477	-35.9545
0.75	-2.88996e-23	1.40621e-23	0.005	5.4263e-22	1.58819e-22	10.47	-995.931	0.104241	-37.4137
0.76	9.92617e-24	-5.79026e-24	0.0052	-4.23516e-22	5.29396e-23	10.47	-995.589	0.122498	-38.8676
0.77	-1.38036e-23	1.48893e-23	0.0054	3.44107e-22	3.17637e-22	10.47	-995.235	0.142977	-40.3158
0.78	-6.53473e-23	1.32349e-23	0.0056	2.77933e-22	-5.29396e-23	10.47	-994.868	0.165837	-41.758
0.79	2.73487e-23	6.61744e-24	0.0058	-5.82335e-22	-1.05879e-22	10.47	-994.489	0.191239	-43.1939
0.8	6.15216e-23	9.92617e-24	0.006	-4.36751e-22	1.05879e-22	10.47	-994.099	0.219352	-44.623
0.81	-4.71493e-23	1.48893e-23	0.0062	1.52201e-21	3.17637e-22	10.47	-993.696	0.250341	-46.045
0.82	5.05614e-23	-1.65436e-24	0.0064	-3.97047e-23	-1.58819e-22	10.47	-993.282	0.284378	-47.4595
0.83	-5.02512e-23	-6.61744e-24	0.0066	-9.26442e-23	-1.58819e-22	10.47	-992.857	0.321635	-48.8662
0.84	-2.48154e-24	-3.30872e-24	0.0068	7.27919e-22	2.11758e-22	10.47	-992.42	0.362284	-50.2646
0.85	-2.99853e-23	-3.30872e-24	0.007	5.4263e-22	-2.64698e-22	10.47	-991.971	0.406501	-51.6543
0.86	-5.41803e-23	-3.30872e-24	0.0072	2.77933e-22	-5.29396e-23	10.47	-991.512	0.45446	-53.0349
0.87	-1.31729e-22	-1.32349e-23	0.0074	2.24993e-22	2.11758e-22	10.47	-991.042	0.506336	-54.406
0.88	9.24374e-23	0	0.0076	-2.24993e-22	-5.29396e-23	10.47	-990.562	0.562302	-55.7672
0.89	1.00089e-22	-3.30872e-24	0.0078	-1.45584e-22	1.58819e-22	10.47	-990.071	0.622533	-57.1179
0.9	-5.16988e-23	-6.61744e-24	0.008	-7.54389e-22	1.05879e-22	10.47	-989.57	0.6872	-58.4577
0.91	-6.90696e-23	-6.61744e-24	0.0082	2.77933e-22	4.23516e-22	10.47	-989.06	0.756474	-59.7863
0.92	8.4786e-23	6.61744e-24	0.0084	-9.66147e-22	2.11758e-22	10.47	-988.54	0.830522	-61.103
0.93	3.69646e-24	0	0.0086	-2.48154e-24	-1.65436e-24	10.47	-988.01	0.90951	-62.4075
0.94	6.79839e-24	-1.65436e-24	0.0088	9.92617e-24	-7.44463e-24	10.47	-987.471	0.9936	-63.6992
0.95	4.3944e-24	-8.27181e-25	0.009	-2.48154e-24	-8.6854e-24	10.47	-986.924	1.08295	-64.9777
0.96	4.65289e-25	-1.65436e-24	0.0092	-2.48154e-24	-1.48893e-23	10.47	-986.368	1.17771	-66.2425
0.97	3.87741e-24	1.24077e-24	0.0094	5.79026e-24	3.35008e-23	10.47	-985.803	1.27804	-67.4931
0.98	1.53028e-23	-1.65436e-24	0.0096	-2.48154e-24	-2.35746e-23	10.47	-985.231	1.38407	-68.7291
0.99	-7.39293e-24	0	0.0098	-5.79026e-24	4.1359e-25	10.47	-984.651	1.49595	-69.9498
1	-4.0842e-24	-1.65436e-24	0.01	1.07533e-23	2.39882e-23	10.47	-984.064	1.61381	-71.1549
