/*--------------------------------*- C++ -*----------------------------------*\
| =========                 |                                                 |
| \\      /  F ield         | OpenFOAM: The Open Source CFD Toolbox           |
|  \\    /   O peration     | Version:  2312                                  |
|   \\  /    A nd           | Website:  www.openfoam.com                      |
|    \\/     M anipulation  |                                                 |
\*---------------------------------------------------------------------------*/
FoamFile
{
    version     2.0;
    format      ascii;
    arch        "LSB;label=32;scalar=64";
    class       surfaceVectorField;
    location    "0.14/beam";
    object      Gamma;
}
// * * * * * * * * * * * * * * * * * * * * * * * * * * * * * * * * * * * * * //

dimensions      [0 0 0 0 0 0 0];

oriented        oriented;

internalField   nonuniform List<vector> 
59
(
(0.0005456040051 -1.72708986e-17 1.509192809e-07)
(0.0005456027104 -1.715343769e-17 1.48508105e-07)
(0.0005456005765 -1.697259759e-17 1.445656934e-07)
(0.0005455976383 -1.67510784e-17 1.392019562e-07)
(0.0005455939432 -1.65211285e-17 1.325622843e-07)
(0.0005455895496 -1.632504887e-17 1.248197943e-07)
(0.0005455845249 -1.621457587e-17 1.161660162e-07)
(0.0005455789437 -1.62513862e-17 1.068005671e-07)
(0.0005455728859 -1.65058803e-17 9.692108204e-08)
(0.0005455664344 -1.705535137e-17 8.67132598e-08)
(0.000545559673 -1.798219229e-17 7.634201556e-08)
(0.0005455526849 -1.937132199e-17 6.594479289e-08)
(0.0005455455505 -2.130505657e-17 5.562667896e-08)
(0.0005455383467 -2.385863711e-17 4.545905049e-08)
(0.0005455311451 -2.709503628e-17 3.548040782e-08)
(0.0005455240115 -3.105913796e-17 2.570101708e-08)
(0.0005455170049 -3.577173895e-17 1.610980432e-08)
(0.0005455101775 -4.122531925e-17 6.684006546e-09)
(0.0005455035744 -4.737963294e-17 -2.59983028e-09)
(0.0005454972334 -5.415822146e-17 -1.175388739e-08)
(0.0005454911857 -6.1449474e-17 -2.076794718e-08)
(0.0005454854557 -6.910811537e-17 -2.959974709e-08)
(0.0005454800623 -7.696056055e-17 -3.816761398e-08)
(0.0005454750167 -8.48155555e-17 -4.63519923e-08)
(0.0005454703294 -9.246726531e-17 -5.398740789e-08)
(0.0005454660024 -9.972129707e-17 -6.088369216e-08)
(0.0005454620387 -1.063961725e-16 -6.682359293e-08)
(0.0005454584352 -1.12350793e-16 -7.159220198e-08)
(0.0005454551905 -1.174871544e-16 -7.49849134e-08)
(0.0005454522993 -1.217904332e-16 -7.68368471e-08)
(0.0005454497586 -1.252823791e-16 -7.70358009e-08)
(0.0005454475631 -1.280590478e-16 -7.554196128e-08)
(0.0005454457097 -1.30305408e-16 -7.239837609e-08)
(0.0005454441939 -1.322441399e-16 -6.773202407e-08)
(0.000545443013 -1.341236e-16 -6.175573881e-08)
(0.0005454421634 -1.361910155e-16 -5.474732274e-08)
(0.0005454416426 -1.386526826e-16 -4.704178584e-08)
(0.0005454414478 -1.416392627e-16 -3.899358364e-08)
(0.0005454415765 -1.451639184e-16 -3.096441866e-08)
(0.0005454420268 -1.490976062e-16 -2.328109895e-08)
(0.0005454427967 -1.531434239e-16 -1.622768529e-08)
(0.0005454438854 -1.568408077e-16 -1.001333025e-08)
(0.0005454452915 -1.595731884e-16 -4.776603063e-09)
(0.0005454470154 -1.60608284e-16 -5.728343697e-10)
(0.0005454490566 -1.591407454e-16 2.608280162e-09)
(0.0005454514166 -1.543471521e-16 4.835216333e-09)
(0.0005454540952 -1.454353731e-16 6.20796976e-09)
(0.0005454570949 -1.316563165e-16 6.83657916e-09)
(0.0005454604155 -1.122960497e-16 6.810182201e-09)
(0.0005454640597 -8.655515983e-17 6.164239545e-09)
(0.0005454680271 -5.339651595e-17 4.838415561e-09)
(0.0005454723207 -1.11739394e-17 2.615790975e-09)
(0.0005454769397 4.280442508e-17 -9.674058876e-10)
(0.0005454818871 1.131362319e-16 -6.778924262e-09)
(0.0005454871615 2.074549579e-16 -1.634136168e-08)
(0.000545492766 3.386322978e-16 -3.228439106e-08)
(0.0005454986978 5.281771146e-16 -5.907615207e-08)
(0.0005455049575 8.12914664e-16 -1.043361527e-07)
(0.0005455115343 1.256198269e-15 -1.809569774e-07)
)
;

boundaryField
{
    left
    {
        type            calculated;
        value           uniform (-0.0005456044391 -4.515490761e-14 -1.51730793e-07);
    }
    right
    {
        type            calculated;
        value           uniform (0.000545518407 -4.31976689e-14 -3.109015029e-07);
    }
    beam
    {
        type            empty;
        value           nonuniform List<vector> 0();
    }
}


// ************************************************************************* //
