/*--------------------------------*- C++ -*----------------------------------*\
| =========                 |                                                 |
| \\      /  F ield         | OpenFOAM: The Open Source CFD Toolbox           |
|  \\    /   O peration     | Version:  2312                                  |
|   \\  /    A nd           | Website:  www.openfoam.com                      |
|    \\/     M anipulation  |                                                 |
\*---------------------------------------------------------------------------*/
FoamFile
{
    version     2.0;
    format      ascii;
    arch        "LSB;label=32;scalar=64";
    class       surfaceVectorField;
    location    "0.14/beam";
    object      K;
}
// * * * * * * * * * * * * * * * * * * * * * * * * * * * * * * * * * * * * * //

dimensions      [0 -1 0 0 0 0 0];

oriented        oriented;

internalField   nonuniform List<vector> 
59
(
(4.205456039e-19 0.001675923208 1.914971377e-13)
(8.79552751e-19 0.003334000382 3.821189915e-13)
(1.416062958e-18 0.004956893303 5.710887064e-13)
(2.072168267e-18 0.006528251644 7.578296372e-13)
(2.893938865e-18 0.008033138934 9.4206995e-13)
(3.934533819e-18 0.009458382598 1.123950018e-12)
(5.253985446e-18 0.01079282947 1.304131298e-12)
(6.920961075e-18 0.01202749254 1.483902779e-12)
(9.021131932e-18 0.01315558478 1.665285375e-12)
(1.163804478e-17 0.01417244204 1.851118423e-12)
(1.486978584e-17 0.01507534181 2.045124739e-12)
(1.882738052e-17 0.015863236 2.25195365e-12)
(2.362103354e-17 0.0165364196 2.47718059e-12)
(2.935035105e-17 0.01709616472 2.727253947e-12)
(3.610332097e-17 0.01754435185 3.009387282e-12)
(4.394555826e-17 0.01788313139 3.331391748e-12)
(5.290241357e-17 0.01811464907 3.701442067e-12)
(6.29728437e-17 0.01824086303 4.12778684e-12)
(7.410752862e-17 0.01826347519 4.61841039e-12)
(8.619129282e-17 0.01818398992 5.180650438e-12)
(9.906236604e-17 0.01800390045 5.820803407e-12)
(1.125009961e-16 0.01772499966 6.543721584e-12)
(1.262493514e-16 0.01734974813 7.352534459e-12)
(1.399901391e-16 0.01688172064 8.24835152e-12)
(1.533672205e-16 0.01632608903 9.230039567e-12)
(1.660185974e-16 0.01568998521 1.029427069e-11)
(1.775587021e-16 0.01498279776 1.143563534e-11)
(1.876055935e-16 0.01421630835 1.264693724e-11)
(1.957864371e-16 0.0134046225 1.391965505e-11)
(2.019879798e-16 0.01256389176 1.524464375e-11)
(2.057602151e-16 0.01171180284 1.661279565e-11)
(2.067804758e-16 0.01086688409 1.801565617e-11)
(2.051511477e-16 0.01004764656 1.94463265e-11)
(2.009149007e-16 0.00927165937 2.090016599e-11)
(1.942386891e-16 0.008554610213 2.237514217e-11)
(1.853951351e-16 0.007909469184 2.387196846e-11)
(1.747759525e-16 0.007345812865 2.539386984e-11)
(1.628342999e-16 0.006869399097 2.694593858e-11)
(1.500940063e-16 0.006482019724 2.853406347e-11)
(1.370597966e-16 0.006181653258 3.016349302e-11)
(1.242192681e-16 0.005962895294 3.183711643e-11)
(1.119417545e-16 0.005817609894 3.355362931e-11)
(1.00489848e-16 0.005735735611 3.530576145e-11)
(8.99489366e-17 0.005706137349 3.707877344e-11)
(8.024984728e-17 0.00571743096 3.88494093e-11)
(7.116302838e-17 0.005758668964 4.058539359e-11)
(6.235281862e-17 0.005819837266 4.224550321e-11)
(5.342831795e-17 0.005892085466 4.377998156e-11)
(4.401132168e-17 0.005967666721 4.513097105e-11)
(3.380005088e-17 0.006039525012 4.6232238e-11)
(2.266504291e-17 0.006100467611 4.700738391e-11)
(1.067193231e-17 0.006141768182 4.736516137e-11)
(-1.790110351e-18 0.006150933684 4.719031494e-11)
(-1.395201878e-17 0.006108102303 4.632724612e-11)
(-2.449367246e-17 0.005980183285 4.455266267e-11)
(-3.149815216e-17 0.005711105774 4.152978607e-11)
(-3.25525354e-17 0.005205517005 3.673156305e-11)
(-2.559928266e-17 0.004301166833 2.930810728e-11)
(-1.143768845e-17 0.002722283828 1.785514429e-11)
)
;

boundaryField
{
    left
    {
        type            calculated;
        value           uniform (-3.720020028e-30 5.701535623e-28 -1.342363822e-31);
    }
    right
    {
        type            calculated;
        value           uniform (4.688466524e-30 -7.085472437e-27 3.238008292e-31);
    }
    beam
    {
        type            empty;
        value           nonuniform List<vector> 0();
    }
}


// ************************************************************************* //
