/*--------------------------------*- C++ -*----------------------------------*\
| =========                 |                                                 |
| \\      /  F ield         | OpenFOAM: The Open Source CFD Toolbox           |
|  \\    /   O peration     | Version:  2312                                  |
|   \\  /    A nd           | Website:  www.openfoam.com                      |
|    \\/     M anipulation  |                                                 |
\*---------------------------------------------------------------------------*/
FoamFile
{
    version     2.0;
    format      ascii;
    arch        "LSB;label=32;scalar=64";
    class       surfaceVectorField;
    location    "0.14/beam";
    object      M;
}
// * * * * * * * * * * * * * * * * * * * * * * * * * * * * * * * * * * * * * //

dimensions      [1 2 -2 0 0 0 0];

oriented        oriented;

internalField   nonuniform List<vector> 
59
(
(2.152716327e-18 1.010893416e-06 1.155550021e-16)
(4.294165504e-18 2.011022355e-06 2.305814533e-16)
(6.414400916e-18 2.989928644e-06 3.446101794e-16)
(8.506172756e-18 3.937749996e-06 4.572927811e-16)
(1.056638193e-17 4.845476941e-06 5.684647282e-16)
(1.259764578e-17 5.705163966e-06 6.78210136e-16)
(1.46100023e-17 6.510083636e-06 7.869274253e-16)
(1.662275611e-17 7.254815117e-06 8.953935148e-16)
(1.866651392e-17 7.935264564e-06 1.004826757e-15)
(2.078526583e-17 8.548618623e-06 1.116939081e-15)
(2.303847837e-17 9.093235123e-06 1.233975178e-15)
(2.550317071e-17 9.568481872e-06 1.358738412e-15)
(2.827566105e-17 9.974536792e-06 1.49459051e-15)
(3.147274892e-17 1.031216721e-05 1.645419442e-15)
(3.523214535e-17 1.058250741e-05 1.815574352e-15)
(3.97118851e-17 1.078685449e-05 2.009764435e-15)
(4.508839623e-17 1.092650271e-05 2.232917744e-15)
(5.155313408e-17 1.100263321e-05 2.49000646e-15)
(5.930764651e-17 1.101627255e-05 2.785842952e-15)
(6.855691687e-17 1.096832815e-05 3.124849236e-15)
(7.950130688e-17 1.085970069e-05 3.510819018e-15)
(9.232703562e-17 1.069147164e-05 3.946674872e-15)
(1.07197516e-16 1.046512518e-05 4.434300329e-15)
(1.242432156e-16 1.018281754e-05 4.974360841e-15)
(1.435515692e-16 9.847668337e-06 5.566169711e-15)
(1.6516125e-16 9.46397942e-06 6.207717245e-15)
(1.890572593e-16 9.037413851e-06 6.895739162e-15)
(2.151697298e-16 8.575078169e-06 7.625894646e-15)
(2.433766492e-16 8.085480627e-06 8.393044895e-15)
(2.735128812e-16 7.578363616e-06 9.191676153e-15)
(3.0538029e-16 7.064395509e-06 1.001629831e-14)
(3.387593488e-16 6.554752345e-06 1.086181623e-14)
(3.73429633e-16 6.060599736e-06 1.172407379e-14)
(4.091891416e-16 5.592535129e-06 1.26002772e-14)
(4.458689813e-16 5.160021116e-06 1.348920571e-14)
(4.833456094e-16 4.770881079e-06 1.439129436e-14)
(5.215465415e-16 4.430891479e-06 1.530849225e-14)
(5.604472869e-16 4.143525363e-06 1.624387388e-14)
(6.000580669e-16 3.909863549e-06 1.720099322e-14)
(6.40400095e-16 3.728686702e-06 1.818301741e-14)
(6.814723323e-16 3.596734961e-06 1.919169035e-14)
(7.232114777e-16 3.509100842e-06 2.0226227e-14)
(7.654489772e-16 3.45971542e-06 2.128224524e-14)
(8.078699426e-16 3.441862163e-06 2.235085998e-14)
(8.499790676e-16 3.448674311e-06 2.341805222e-14)
(8.910770207e-16 3.473548498e-06 2.446436639e-14)
(9.302497203e-16 3.510444361e-06 2.546495409e-14)
(9.663672189e-16 3.554023464e-06 2.638982419e-14)
(9.980866293e-16 3.599613019e-06 2.720410375e-14)
(1.023844224e-15 3.642956934e-06 2.786787228e-14)
(1.041820113e-15 3.679716656e-06 2.833508343e-14)
(1.049846067e-15 3.704628583e-06 2.855074098e-14)
(1.045224803e-15 3.710157085e-06 2.844537704e-14)
(1.024407104e-15 3.684321796e-06 2.792520411e-14)
(9.824545104e-16 3.607162835e-06 2.685562582e-14)
(9.121444548e-16 3.444859048e-06 2.503362941e-14)
(8.024728859e-16 3.13989498e-06 2.214149123e-14)
(6.360515685e-16 2.594403617e-06 1.766686048e-14)
(3.844946636e-16 1.642043493e-06 1.076316172e-14)
)
;

boundaryField
{
    left
    {
        type            calculated;
        value           uniform (-4.488445317e-33 3.439086466e-31 -7.109588115e-36);
    }
    right
    {
        type            calculated;
        value           uniform (5.659178493e-33 -4.273857777e-30 -4.967595079e-35);
    }
    beam
    {
        type            empty;
        value           nonuniform List<vector> 0();
    }
}


// ************************************************************************* //
