/*--------------------------------*- C++ -*----------------------------------*\
| =========                 |                                                 |
| \\      /  F ield         | OpenFOAM: The Open Source CFD Toolbox           |
|  \\    /   O peration     | Version:  2312                                  |
|   \\  /    A nd           | Website:  www.openfoam.com                      |
|    \\/     M anipulation  |                                                 |
\*---------------------------------------------------------------------------*/
FoamFile
{
    version     2.0;
    format      ascii;
    arch        "LSB;label=32;scalar=64";
    class       pointVectorField;
    location    "0.14/beam";
    object      pointW;
}
// * * * * * * * * * * * * * * * * * * * * * * * * * * * * * * * * * * * * * //

dimensions      [0 1 0 0 0 0 0];

internalField   nonuniform List<vector> 
1952
(
(-6.582302798e-05 2.626872181e-16 5.416168789e-07)
(-6.45582385e-05 2.576064362e-16 5.312097106e-07)
(-6.081257909e-05 2.426444462e-16 5.00389002e-07)
(-5.472987308e-05 2.18575158e-16 4.503381862e-07)
(-4.654395676e-05 1.856154119e-16 3.829813571e-07)
(-3.656929966e-05 1.461504529e-16 3.009060892e-07)
(-2.518932091e-05 1.006139616e-16 2.07267301e-07)
(-1.284143099e-05 5.117434254e-17 1.056641721e-07)
(-9.94891671e-16 0 -2.463489199e-16)
(1.284143098e-05 -5.117434254e-17 -1.056641726e-07)
(2.518932091e-05 -1.006139616e-16 -2.072673015e-07)
(3.656929966e-05 -1.461504529e-16 -3.009060896e-07)
(4.654395676e-05 -1.856154119e-16 -3.829813574e-07)
(5.472987308e-05 -2.18575158e-16 -4.503381865e-07)
(6.081257909e-05 -2.426444462e-16 -5.003890022e-07)
(6.45582385e-05 -2.576064362e-16 -5.312097107e-07)
(6.582302798e-05 -2.626872181e-16 -5.416168789e-07)
(6.45582385e-05 -2.576064362e-16 -5.312097106e-07)
(6.081257909e-05 -2.426444462e-16 -5.00389002e-07)
(5.472987308e-05 -2.18575158e-16 -4.503381862e-07)
(4.654395676e-05 -1.856154119e-16 -3.829813571e-07)
(3.656929966e-05 -1.461504529e-16 -3.009060892e-07)
(2.518932091e-05 -1.006139616e-16 -2.07267301e-07)
(1.284143099e-05 -5.117434254e-17 -1.056641721e-07)
(9.94897915e-16 0 2.463488685e-16)
(-1.284143098e-05 5.117434254e-17 1.056641726e-07)
(-2.518932091e-05 1.006139616e-16 2.072673015e-07)
(-3.656929966e-05 1.461504529e-16 3.009060896e-07)
(-4.654395676e-05 1.856154119e-16 3.829813574e-07)
(-5.472987308e-05 2.18575158e-16 4.503381865e-07)
(-6.081257909e-05 2.426444462e-16 5.003890022e-07)
(-6.45582385e-05 2.576064362e-16 5.312097107e-07)
(-4.782658442e-05 -9.6158608e-15 -0.0007292470488)
(-4.655894376e-05 -9.620884818e-15 -0.000729257503)
(-4.280484063e-05 -9.635955228e-15 -0.0007292884628)
(-3.670842255e-05 -9.660241357e-15 -0.0007293387396)
(-2.850405297e-05 -9.693201103e-15 -0.0007294064005)
(-1.85069103e-05 -9.732666062e-15 -0.0007294888462)
(-7.101278007e-06 -9.778202553e-15 -0.0007295829077)
(5.274447389e-06 -9.827208491e-15 -0.0007296849695)
(1.814482642e-05 -9.878382834e-15 -0.0007297911107)
(3.101520546e-05 -9.929557176e-15 -0.0007298972519)
(4.339093085e-05 -9.979430476e-15 -0.0007299993137)
(5.479656315e-05 -1.002496697e-14 -0.0007300933752)
(6.479370582e-05 -1.006443193e-14 -0.000730175821)
(7.29980754e-05 -1.009739167e-14 -0.0007302434819)
(7.909449347e-05 -1.012124412e-14 -0.0007302937586)
(8.284859661e-05 -1.013631453e-14 -0.0007303247185)
(8.411623727e-05 -1.01413098e-14 -0.0007303351726)
(8.284859661e-05 -1.013631453e-14 -0.0007303247185)
(7.909449348e-05 -1.012124412e-14 -0.0007302937586)
(7.29980754e-05 -1.009739167e-14 -0.0007302434819)
(6.479370582e-05 -1.006443193e-14 -0.000730175821)
(5.479656315e-05 -1.002496697e-14 -0.0007300933752)
(4.339093086e-05 -9.979430476e-15 -0.0007299993137)
(3.101520546e-05 -9.929557176e-15 -0.0007298972519)
(1.814482643e-05 -9.878382834e-15 -0.0007297911107)
(5.274447391e-06 -9.827208491e-15 -0.0007296849695)
(-7.101278005e-06 -9.778202553e-15 -0.0007295829077)
(-1.85069103e-05 -9.732666062e-15 -0.0007294888462)
(-2.850405297e-05 -9.693201103e-15 -0.0007294064005)
(-3.670842255e-05 -9.660241357e-15 -0.0007293387396)
(-4.280484063e-05 -9.635955228e-15 -0.0007292884628)
(-4.655894376e-05 -9.620884818e-15 -0.000729257503)
(-3.017955202e-05 -2.011895144e-14 -0.001462308754)
(-2.890338821e-05 -2.012398494e-14 -0.001462319349)
(-2.512404384e-05 -2.013883851e-14 -0.001462350727)
(-1.898663565e-05 -2.016312464e-14 -0.001462401682)
(-1.072710286e-05 -2.019565071e-14 -0.001462470256)
(-6.627430169e-07 -2.023554935e-14 -0.001462553814)
(1.081957662e-05 -2.028108584e-14 -0.001462649145)
(2.327851192e-05 -2.033095914e-14 -0.001462752584)
(3.623542673e-05 -2.038213348e-14 -0.001462860157)
(4.919234153e-05 -2.043330782e-14 -0.001462967731)
(6.165127683e-05 -2.048231376e-14 -0.00146307117)
(7.313359647e-05 -2.052785025e-14 -0.0014631665)
(8.319795631e-05 -2.056774889e-14 -0.001463250059)
(9.145748911e-05 -2.060027496e-14 -0.001463318633)
(9.759489729e-05 -2.062456109e-14 -0.001463369588)
(0.0001013742417 -2.06396315e-14 -0.001463400965)
(0.0001026504055 -2.064461548e-14 -0.001463411561)
(0.0001013742417 -2.06396315e-14 -0.001463400965)
(9.759489729e-05 -2.062456109e-14 -0.001463369588)
(9.145748911e-05 -2.060027496e-14 -0.001463318633)
(8.319795631e-05 -2.056774889e-14 -0.001463250059)
(7.313359647e-05 -2.052785025e-14 -0.0014631665)
(6.165127683e-05 -2.048231376e-14 -0.00146307117)
(4.919234154e-05 -2.043330782e-14 -0.001462967731)
(3.623542673e-05 -2.038213348e-14 -0.001462860157)
(2.327851192e-05 -2.033095914e-14 -0.001462752584)
(1.081957662e-05 -2.028108584e-14 -0.001462649145)
(-6.627430154e-07 -2.023554935e-14 -0.001462553814)
(-1.072710286e-05 -2.019565071e-14 -0.001462470256)
(-1.898663565e-05 -2.016312464e-14 -0.001462401682)
(-2.512404384e-05 -2.013883851e-14 -0.001462350727)
(-2.89033882e-05 -2.012398494e-14 -0.001462319349)
(-1.293160711e-05 -2.987288865e-14 -0.002201886653)
(-1.16413384e-05 -2.987800979e-14 -0.002201897483)
(-7.820222552e-06 -2.989275494e-14 -0.002201929559)
(-1.614980215e-06 -2.991704107e-14 -0.002201981646)
(6.735841669e-06 -2.994956713e-14 -0.002202051745)
(1.691143858e-05 -2.998946577e-14 -0.00220213716)
(2.85206674e-05 -3.003500226e-14 -0.00220223461)
(4.111730598e-05 -3.008530924e-14 -0.002202340349)
(5.421742804e-05 -3.013648359e-14 -0.002202450314)
(6.731755009e-05 -3.018765793e-14 -0.002202560278)
(7.991418868e-05 -3.023623019e-14 -0.002202666017)
(9.152341749e-05 -3.028176668e-14 -0.002202763467)
(0.0001016990144 -3.032166532e-14 -0.002202848882)
(0.0001100498363 -3.035419138e-14 -0.002202918981)
(0.0001162550786 -3.037891119e-14 -0.002202971068)
(0.0001200761945 -3.039387318e-14 -0.002203003144)
(0.0001213664632 -3.039888336e-14 -0.002203013974)
(0.0001200761945 -3.039387318e-14 -0.002203003144)
(0.0001162550786 -3.037891119e-14 -0.002202971068)
(0.0001100498363 -3.035419138e-14 -0.002202918981)
(0.0001016990144 -3.032166532e-14 -0.002202848882)
(9.152341749e-05 -3.028176668e-14 -0.002202763467)
(7.991418868e-05 -3.023623019e-14 -0.002202666017)
(6.731755009e-05 -3.018765793e-14 -0.002202560278)
(5.421742804e-05 -3.013648359e-14 -0.002202450314)
(4.111730599e-05 -3.008530924e-14 -0.002202340349)
(2.85206674e-05 -3.003500226e-14 -0.00220223461)
(1.691143858e-05 -2.998946577e-14 -0.00220213716)
(6.73584167e-06 -2.994956713e-14 -0.002202051745)
(-1.614980214e-06 -2.991704107e-14 -0.002201981646)
(-7.820222552e-06 -2.989275494e-14 -0.002201929559)
(-1.16413384e-05 -2.987800979e-14 -0.002201897483)
(3.87029068e-06 -3.850713363e-14 -0.002951155349)
(5.180098437e-06 -3.851216221e-14 -0.002951166511)
(9.059078942e-06 -3.85271242e-14 -0.002951199565)
(1.535828971e-05 -3.855119349e-14 -0.002951253242)
(2.383557137e-05 -3.858415323e-14 -0.00295132548)
(3.416526135e-05 -3.862405187e-14 -0.002951413502)
(4.595029328e-05 -3.866958836e-14 -0.002951513926)
(5.873768772e-05 -3.871989535e-14 -0.002951622892)
(7.203619008e-05 -3.877106969e-14 -0.002951736212)
(8.533469243e-05 -3.882224403e-14 -0.002951849533)
(9.812208687e-05 -3.887081629e-14 -0.002951958499)
(0.0001099071188 -3.891635278e-14 -0.002952058923)
(0.0001202368088 -3.895625142e-14 -0.002952146945)
(0.0001287140905 -3.898921117e-14 -0.002952219183)
(0.0001350133012 -3.901328045e-14 -0.00295227286)
(0.0001388922817 -3.902845928e-14 -0.002952305914)
(0.0001402020895 -3.90335348e-14 -0.002952317076)
(0.0001388922817 -3.902845928e-14 -0.002952305914)
(0.0001350133012 -3.901328045e-14 -0.00295227286)
(0.0001287140905 -3.898921117e-14 -0.002952219183)
(0.0001202368088 -3.895625142e-14 -0.002952146945)
(0.0001099071188 -3.891635278e-14 -0.002952058923)
(9.812208688e-05 -3.887081629e-14 -0.002951958499)
(8.533469243e-05 -3.882224403e-14 -0.002951849533)
(7.203619008e-05 -3.877106969e-14 -0.002951736212)
(5.873768772e-05 -3.871989535e-14 -0.002951622892)
(4.595029328e-05 -3.866958836e-14 -0.002951513926)
(3.416526135e-05 -3.862405187e-14 -0.002951413502)
(2.383557137e-05 -3.858415323e-14 -0.00295132548)
(1.535828971e-05 -3.855119349e-14 -0.002951253242)
(9.059078943e-06 -3.85271242e-14 -0.002951199565)
(5.180098437e-06 -3.851216221e-14 -0.002951166511)
(2.018160424e-05 -4.565538135e-14 -0.00371318903)
(2.151618436e-05 -4.566041555e-14 -0.003713200617)
(2.546852794e-05 -4.567548596e-14 -0.003713234933)
(3.188687555e-05 -4.569955525e-14 -0.003713290661)
(4.052448786e-05 -4.5732515e-14 -0.003713365657)
(5.104954305e-05 -4.577241364e-14 -0.003713457041)
(6.305746504e-05 -4.581795013e-14 -0.0037135613)
(7.608670721e-05 -4.586782343e-14 -0.003713674426)
(8.963672386e-05 -4.591899777e-14 -0.003713792074)
(0.0001031867405 -4.597017211e-14 -0.003713909722)
(0.0001162159827 -4.601917805e-14 -0.003714022849)
(0.0001282239047 -4.606471454e-14 -0.003714127108)
(0.0001387489599 -4.610461318e-14 -0.003714218492)
(0.0001473865722 -4.613757293e-14 -0.003714293488)
(0.0001538049198 -4.61620759e-14 -0.003714349215)
(0.0001577572634 -4.617714631e-14 -0.003714383531)
(0.0001590918435 -4.618221097e-14 -0.003714395119)
(0.0001577572634 -4.617714631e-14 -0.003714383531)
(0.0001538049198 -4.61620759e-14 -0.003714349215)
(0.0001473865722 -4.613757293e-14 -0.003714293488)
(0.0001387489599 -4.610461318e-14 -0.003714218492)
(0.0001282239047 -4.606471454e-14 -0.003714127108)
(0.0001162159827 -4.601917805e-14 -0.003714022849)
(0.0001031867405 -4.597017211e-14 -0.003713909722)
(8.963672386e-05 -4.591899777e-14 -0.003713792074)
(7.608670721e-05 -4.586782343e-14 -0.003713674426)
(6.305746504e-05 -4.581795013e-14 -0.0037135613)
(5.104954305e-05 -4.577241364e-14 -0.003713457041)
(4.052448786e-05 -4.5732515e-14 -0.003713365657)
(3.188687555e-05 -4.569955525e-14 -0.003713290661)
(2.546852794e-05 -4.567548596e-14 -0.003713234933)
(2.151618436e-05 -4.566041555e-14 -0.003713200617)
(3.595991142e-05 -5.095603958e-14 -0.004490932338)
(3.732424858e-05 -5.096107997e-14 -0.004490944448)
(4.136471725e-05 -5.097615038e-14 -0.004490980312)
(4.792617424e-05 -5.100043651e-14 -0.004491038552)
(5.675637871e-05 -5.103296258e-14 -0.00449111693)
(6.751611022e-05 -5.107286122e-14 -0.004491212435)
(7.97917719e-05 -5.111839771e-14 -0.004491321396)
(9.311152605e-05 -5.116827101e-14 -0.004491439624)
(0.0001069636663 -5.121944535e-14 -0.004491562577)
(0.0001208158066 -5.127061969e-14 -0.004491685531)
(0.0001341355608 -5.132049299e-14 -0.004491803759)
(0.0001464112225 -5.136602949e-14 -0.004491912719)
(0.000157170954 -5.140592813e-14 -0.004492008224)
(0.0001660011585 -5.143845419e-14 -0.004492086602)
(0.0001725626154 -5.1463174e-14 -0.004492144842)
(0.0001766030841 -5.147824441e-14 -0.004492180706)
(0.0001779674213 -5.148325439e-14 -0.004492192816)
(0.0001766030841 -5.147824441e-14 -0.004492180706)
(0.0001725626154 -5.1463174e-14 -0.004492144842)
(0.0001660011585 -5.143845419e-14 -0.004492086602)
(0.000157170954 -5.140592813e-14 -0.004492008224)
(0.0001464112225 -5.136602949e-14 -0.004491912719)
(0.0001341355608 -5.132049299e-14 -0.004491803759)
(0.0001208158066 -5.127061969e-14 -0.004491685531)
(0.0001069636663 -5.121944535e-14 -0.004491562577)
(9.311152605e-05 -5.116827101e-14 -0.004491439624)
(7.97917719e-05 -5.111839771e-14 -0.004491321396)
(6.751611022e-05 -5.107286122e-14 -0.004491212435)
(5.675637871e-05 -5.103296258e-14 -0.00449111693)
(4.792617424e-05 -5.100043651e-14 -0.004491038552)
(4.136471725e-05 -5.097615038e-14 -0.004490980312)
(3.732424858e-05 -5.096107997e-14 -0.004490944448)
(5.116461286e-05 -5.405190229e-14 -0.005287174672)
(5.256340165e-05 -5.405701928e-14 -0.005287187401)
(5.670589844e-05 -5.407176443e-14 -0.005287225099)
(6.343304244e-05 -5.409605056e-14 -0.005287286318)
(7.248622331e-05 -5.41290103e-14 -0.005287368705)
(8.351765479e-05 -5.416890894e-14 -0.005287469095)
(9.610329603e-05 -5.421444543e-14 -0.005287583628)
(0.0001097593947 -5.426475241e-14 -0.005287707903)
(0.0001239613231 -5.431592676e-14 -0.005287837145)
(0.0001381632515 -5.43671011e-14 -0.005287966387)
(0.0001518193502 -5.441654072e-14 -0.005288090661)
(0.0001644049914 -5.446207721e-14 -0.005288205195)
(0.0001754364229 -5.450197585e-14 -0.005288305584)
(0.0001844896038 -5.45349356e-14 -0.005288387971)
(0.0001912167478 -5.455922172e-14 -0.00528844919)
(0.0001953592446 -5.457440055e-14 -0.005288486888)
(0.0001967580333 -5.457938408e-14 -0.005288499618)
(0.0001953592446 -5.457440055e-14 -0.005288486888)
(0.0001912167478 -5.455922172e-14 -0.00528844919)
(0.0001844896038 -5.45349356e-14 -0.005288387971)
(0.0001754364229 -5.450197585e-14 -0.005288305584)
(0.0001644049914 -5.446207721e-14 -0.005288205195)
(0.0001518193502 -5.441654072e-14 -0.005288090661)
(0.0001381632515 -5.43671011e-14 -0.005287966387)
(0.0001239613231 -5.431592676e-14 -0.005287837145)
(0.0001097593947 -5.426475241e-14 -0.005287707903)
(9.610329603e-05 -5.421444543e-14 -0.005287583628)
(8.351765479e-05 -5.416890894e-14 -0.005287469095)
(7.248622331e-05 -5.41290103e-14 -0.005287368705)
(6.343304244e-05 -5.409605056e-14 -0.005287286318)
(5.670589844e-05 -5.407176443e-14 -0.005287225099)
(5.256340165e-05 -5.405701928e-14 -0.005287187401)
(6.575667808e-05 -5.458881085e-14 -0.006104528375)
(6.719428876e-05 -5.459380777e-14 -0.006104541821)
(7.145175616e-05 -5.460887818e-14 -0.006104581641)
(7.836560489e-05 -5.463294747e-14 -0.006104646305)
(8.767004719e-05 -5.466590722e-14 -0.006104733329)
(9.900764433e-05 -5.470580586e-14 -0.006104839369)
(0.0001119425867 -5.475134235e-14 -0.006104960349)
(0.0001259776959 -5.480164933e-14 -0.006105091618)
(0.0001405737837 -5.485282367e-14 -0.006105228134)
(0.0001551698716 -5.490399801e-14 -0.00610536465)
(0.0001692049807 -5.495343763e-14 -0.00610549592)
(0.0001821399231 -5.499897412e-14 -0.006105616899)
(0.0001934775202 -5.503887276e-14 -0.006105722939)
(0.0002027819625 -5.507183251e-14 -0.006105809963)
(0.0002096958113 -5.509633548e-14 -0.006105874628)
(0.0002139532787 -5.511118905e-14 -0.006105914447)
(0.0002153908894 -5.511635974e-14 -0.006105927893)
(0.0002139532787 -5.511118905e-14 -0.006105914447)
(0.0002096958113 -5.509633548e-14 -0.006105874628)
(0.0002027819625 -5.507183251e-14 -0.006105809963)
(0.0001934775202 -5.503887276e-14 -0.006105722939)
(0.0001821399231 -5.499897412e-14 -0.006105616899)
(0.0001692049807 -5.495343763e-14 -0.00610549592)
(0.0001551698716 -5.490399801e-14 -0.00610536465)
(0.0001405737837 -5.485282367e-14 -0.006105228134)
(0.0001259776959 -5.480164933e-14 -0.006105091618)
(0.0001119425867 -5.475134235e-14 -0.006104960349)
(9.900764433e-05 -5.470580586e-14 -0.006104839369)
(8.767004719e-05 -5.466590722e-14 -0.006104733329)
(7.836560489e-05 -5.463294747e-14 -0.006104646305)
(7.145175616e-05 -5.460887818e-14 -0.006104581641)
(6.719428876e-05 -5.459380777e-14 -0.006104541821)
(7.96984451e-05 -5.221305728e-14 -0.00694541113)
(8.117889677e-05 -5.221810397e-14 -0.00694542539)
(8.556323724e-05 -5.223317438e-14 -0.006945467618)
(9.268311956e-05 -5.225724367e-14 -0.006945536195)
(0.0001022648354 -5.229020342e-14 -0.006945628483)
(0.0001139402945 -5.233010206e-14 -0.006945740938)
(0.0001272606998 -5.237563855e-14 -0.006945869236)
(0.000141714057 -5.242507817e-14 -0.006946008446)
(0.0001567451102 -5.247625251e-14 -0.006946153221)
(0.0001717761633 -5.252742685e-14 -0.006946297996)
(0.0001862295206 -5.257773383e-14 -0.006946437206)
(0.0001995499259 -5.262327032e-14 -0.006946565504)
(0.0002112253849 -5.266316896e-14 -0.006946677959)
(0.0002208071008 -5.269612871e-14 -0.006946770247)
(0.0002279269831 -5.2720198e-14 -0.006946838824)
(0.0002323113235 -5.273526841e-14 -0.006946881052)
(0.0002337917752 -5.274038668e-14 -0.006946895312)
(0.0002323113235 -5.273526841e-14 -0.006946881052)
(0.0002279269831 -5.2720198e-14 -0.006946838824)
(0.0002208071008 -5.269612871e-14 -0.006946770247)
(0.0002112253849 -5.266316896e-14 -0.006946677959)
(0.0001995499259 -5.262327032e-14 -0.006946565504)
(0.0001862295206 -5.257773383e-14 -0.006946437206)
(0.0001717761633 -5.252742685e-14 -0.006946297996)
(0.0001567451102 -5.247625251e-14 -0.006946153221)
(0.000141714057 -5.242507817e-14 -0.006946008446)
(0.0001272606998 -5.237563855e-14 -0.006945869236)
(0.0001139402945 -5.233010206e-14 -0.006945740938)
(0.0001022648354 -5.229020342e-14 -0.006945628483)
(9.268311956e-05 -5.225724367e-14 -0.006945536195)
(8.556323724e-05 -5.223317438e-14 -0.006945467618)
(8.117889677e-05 -5.221810397e-14 -0.00694542539)
(9.295349445e-05 -4.656739917e-14 -0.007812032621)
(9.448043553e-05 -4.657255484e-14 -0.00781204779)
(9.900245388e-05 -4.658751683e-14 -0.007812092713)
(0.0001063459161 -4.66120198e-14 -0.007812165665)
(0.0001162285187 -4.664497955e-14 -0.00781226384)
(0.0001282706127 -4.668487819e-14 -0.007812383469)
(0.0001420093078 -4.673041468e-14 -0.007812519953)
(0.0001569165321 -4.677942061e-14 -0.007812668044)
(0.0001724195931 -4.683059496e-14 -0.007812822055)
(0.0001879226542 -4.68817693e-14 -0.007812976066)
(0.0002028298784 -4.69316426e-14 -0.007813124158)
(0.0002165685735 -4.697717909e-14 -0.007813260641)
(0.0002286106675 -4.701707773e-14 -0.00781338027)
(0.0002384932702 -4.705003748e-14 -0.007813478446)
(0.0002458367323 -4.707410677e-14 -0.007813551397)
(0.0002503587507 -4.708906876e-14 -0.00781359632)
(0.0002518856918 -4.709413328e-14 -0.007813611489)
(0.0002503587507 -4.708906876e-14 -0.00781359632)
(0.0002458367323 -4.707410677e-14 -0.007813551397)
(0.0002384932702 -4.705003748e-14 -0.007813478446)
(0.0002286106675 -4.701707773e-14 -0.00781338027)
(0.0002165685735 -4.697717909e-14 -0.007813260641)
(0.0002028298784 -4.69316426e-14 -0.007813124158)
(0.0001879226542 -4.68817693e-14 -0.007812976066)
(0.0001724195931 -4.683059496e-14 -0.007812822055)
(0.0001569165321 -4.677942061e-14 -0.007812668044)
(0.0001420093078 -4.673041468e-14 -0.007812519953)
(0.0001282706127 -4.668487819e-14 -0.007812383469)
(0.0001162285187 -4.664497955e-14 -0.00781226384)
(0.0001063459161 -4.66120198e-14 -0.007812165665)
(9.900245388e-05 -4.658751683e-14 -0.007812092713)
(9.448043553e-05 -4.657255484e-14 -0.00781204779)
(0.0001054866069 -3.728548317e-14 -0.008706385298)
(0.0001070633026 -3.72904832e-14 -0.008706401472)
(0.0001117326687 -3.730544519e-14 -0.00870644937)
(0.0001193154139 -3.732994816e-14 -0.008706527154)
(0.0001295200363 -3.736247423e-14 -0.008706631833)
(0.0001419545158 -3.740237287e-14 -0.008706759385)
(0.0001561408795 -3.744790936e-14 -0.008706904909)
(0.0001715338482 -3.749691529e-14 -0.00870706281)
(0.0001875420688 -3.754808964e-14 -0.008707227022)
(0.0002035502894 -3.759926398e-14 -0.008707391234)
(0.0002189432581 -3.764913728e-14 -0.008707549135)
(0.0002331296217 -3.769467377e-14 -0.008707694659)
(0.0002455641013 -3.773457241e-14 -0.008707822212)
(0.0002557687237 -3.776709848e-14 -0.008707926891)
(0.0002633514689 -3.779116776e-14 -0.008708004675)
(0.0002680208349 -3.780612975e-14 -0.008708052573)
(0.0002695975306 -3.78111555e-14 -0.008708068747)
(0.0002680208349 -3.780612975e-14 -0.008708052573)
(0.0002633514689 -3.779116776e-14 -0.008708004675)
(0.0002557687237 -3.776709848e-14 -0.008707926891)
(0.0002455641013 -3.773457241e-14 -0.008707822212)
(0.0002331296217 -3.769467377e-14 -0.008707694659)
(0.0002189432581 -3.764913728e-14 -0.008707549135)
(0.0002035502893 -3.759926398e-14 -0.008707391234)
(0.0001875420688 -3.754808964e-14 -0.008707227022)
(0.0001715338482 -3.749691529e-14 -0.00870706281)
(0.0001561408795 -3.744790936e-14 -0.008706904909)
(0.0001419545158 -3.740237287e-14 -0.008706759385)
(0.0001295200363 -3.736247423e-14 -0.008706631833)
(0.0001193154139 -3.732994816e-14 -0.008706527154)
(0.0001117326687 -3.730544519e-14 -0.00870644937)
(0.0001070633026 -3.72904832e-14 -0.008706401472)
(0.0001172638091 -2.398448317e-14 -0.009630238914)
(0.000118893135 -2.398949095e-14 -0.009630256186)
(0.0001237183647 -2.400466978e-14 -0.009630307335)
(0.0001315542223 -2.402852223e-14 -0.009630390399)
(0.0001420994755 -2.406104829e-14 -0.009630502184)
(0.0001549490186 -2.410051325e-14 -0.009630638396)
(0.0001696089238 -2.414604974e-14 -0.009630793798)
(0.0001855157106 -2.419505568e-14 -0.009630962417)
(0.0002020582864 -2.424623002e-14 -0.009631137777)
(0.0002186008622 -2.429740437e-14 -0.009631313136)
(0.000234507649 -2.43464103e-14 -0.009631481756)
(0.0002491675542 -2.43919468e-14 -0.009631637158)
(0.0002620170973 -2.443141175e-14 -0.009631773369)
(0.0002725623505 -2.446393782e-14 -0.009631885154)
(0.0002803982081 -2.448865763e-14 -0.009631968218)
(0.0002852234378 -2.450340278e-14 -0.009632019368)
(0.0002868527637 -2.450853632e-14 -0.009632036639)
(0.0002852234378 -2.450340278e-14 -0.009632019368)
(0.0002803982081 -2.448865763e-14 -0.009631968218)
(0.0002725623505 -2.446393782e-14 -0.009631885154)
(0.0002620170973 -2.443141175e-14 -0.009631773369)
(0.0002491675542 -2.43919468e-14 -0.009631637158)
(0.000234507649 -2.43464103e-14 -0.009631481756)
(0.0002186008622 -2.429740437e-14 -0.009631313136)
(0.0002020582864 -2.424623002e-14 -0.009631137777)
(0.0001855157106 -2.419505568e-14 -0.009630962417)
(0.0001696089238 -2.414604974e-14 -0.009630793798)
(0.0001549490186 -2.410051325e-14 -0.009630638396)
(0.0001420994755 -2.406104829e-14 -0.009630502184)
(0.0001315542223 -2.402852223e-14 -0.009630390399)
(0.0001237183647 -2.400466978e-14 -0.009630307335)
(0.000118893135 -2.398949095e-14 -0.009630256186)
(0.0001282525172 -6.255970228e-15 -0.01058513831)
(0.0001299369579 -6.260942285e-15 -0.01058515677)
(0.0001349254095 -6.275795855e-15 -0.01058521144)
(0.0001430263288 -6.300081984e-15 -0.01058530022)
(0.0001539282938 -6.332608049e-15 -0.0105854197)
(0.0001672124953 -6.372073008e-15 -0.01058556528)
(0.0001823682977 -6.417175819e-15 -0.01058573138)
(0.0001988131595 -6.465314395e-15 -0.0105859116)
(0.0002159153171 -6.516488738e-15 -0.01058609902)
(0.0002330174746 -6.56766308e-15 -0.01058628645)
(0.0002494623365 -6.616669018e-15 -0.01058646667)
(0.0002646181388 -6.661771829e-15 -0.01058663277)
(0.0002779023404 -6.701236788e-15 -0.01058677835)
(0.0002888043053 -6.733762853e-15 -0.01058689783)
(0.0002969052247 -6.758048982e-15 -0.01058698661)
(0.0003018936763 -6.772685711e-15 -0.01058704127)
(0.000303578117 -6.777756162e-15 -0.01058705973)
(0.0003018936763 -6.772685711e-15 -0.01058704127)
(0.0002969052247 -6.758048982e-15 -0.01058698661)
(0.0002888043053 -6.733762853e-15 -0.01058689783)
(0.0002779023404 -6.701236788e-15 -0.01058677835)
(0.0002646181388 -6.661771829e-15 -0.01058663277)
(0.0002494623365 -6.616669018e-15 -0.01058646667)
(0.0002330174746 -6.56766308e-15 -0.01058628645)
(0.0002159153171 -6.516488738e-15 -0.01058609902)
(0.0001988131595 -6.465314395e-15 -0.0105859116)
(0.0001823682976 -6.417175819e-15 -0.01058573138)
(0.0001672124953 -6.372073008e-15 -0.01058556528)
(0.0001539282938 -6.332608049e-15 -0.0105854197)
(0.0001430263288 -6.300081984e-15 -0.01058530022)
(0.0001349254095 -6.275795855e-15 -0.01058521144)
(0.0001299369579 -6.260942285e-15 -0.01058515677)
(0.00013842177 1.634497698e-14 -0.01157240385)
(0.0001401634219 1.633990252e-14 -0.01157242358)
(0.000145321304 1.632526579e-14 -0.01157248203)
(0.0001536973672 1.63011965e-14 -0.01157257694)
(0.0001649696123 1.626910412e-14 -0.01157270467)
(0.0001787050055 1.622963916e-14 -0.01157286031)
(0.0001943755675 1.618497003e-14 -0.01157303788)
(0.0002113789713 1.613639777e-14 -0.01157323056)
(0.0002290619956 1.608609079e-14 -0.01157343093)
(0.0002467450198 1.603578381e-14 -0.01157363131)
(0.0002637484237 1.598634419e-14 -0.01157382398)
(0.0002794189857 1.594167506e-14 -0.01157400155)
(0.0002931543789 1.59022101e-14 -0.01157415719)
(0.0003044266239 1.587011772e-14 -0.01157428492)
(0.0003128026872 1.584604843e-14 -0.01157437984)
(0.0003179605692 1.583119486e-14 -0.01157443828)
(0.0003197022211 1.582619678e-14 -0.01157445802)
(0.0003179605692 1.583119486e-14 -0.01157443828)
(0.0003128026872 1.584604843e-14 -0.01157437984)
(0.0003044266239 1.587011772e-14 -0.01157428492)
(0.0002931543789 1.59022101e-14 -0.01157415719)
(0.0002794189857 1.594167506e-14 -0.01157400155)
(0.0002637484237 1.598634419e-14 -0.01157382398)
(0.0002467450198 1.603578381e-14 -0.01157363131)
(0.0002290619956 1.608609079e-14 -0.01157343093)
(0.0002113789713 1.613639777e-14 -0.01157323056)
(0.0001943755674 1.618497003e-14 -0.01157303788)
(0.0001787050055 1.622963916e-14 -0.01157286031)
(0.0001649696123 1.626910412e-14 -0.01157270467)
(0.0001536973672 1.63011965e-14 -0.01157257694)
(0.000145321304 1.632526579e-14 -0.01157248203)
(0.0001401634219 1.633990252e-14 -0.01157242358)
(0.0001477425606 4.431236048e-14 -0.01259313368)
(0.0001495431373 4.430743966e-14 -0.01259315477)
(0.0001548755244 4.429269451e-14 -0.01259321724)
(0.0001635349724 4.426884206e-14 -0.01259331868)
(0.0001751885879 4.423674968e-14 -0.01259345521)
(0.0001893886864 4.41977184e-14 -0.01259362156)
(0.0002055894257 4.415304927e-14 -0.01259381135)
(0.0002231681005 4.410534438e-14 -0.01259401728)
(0.0002414493891 4.40550374e-14 -0.01259423145)
(0.0002597306778 4.400473042e-14 -0.01259444561)
(0.0002773093526 4.395615816e-14 -0.01259465155)
(0.0002935100919 4.391148903e-14 -0.01259484134)
(0.0003077101904 4.387245775e-14 -0.01259500769)
(0.0003193638059 4.384036537e-14 -0.01259514421)
(0.0003280232539 4.38169466e-14 -0.01259524566)
(0.000333355641 4.380241829e-14 -0.01259530812)
(0.0003351562177 4.379741533e-14 -0.01259532922)
(0.000333355641 4.380241829e-14 -0.01259530812)
(0.0003280232539 4.38169466e-14 -0.01259524566)
(0.0003193638059 4.384036537e-14 -0.01259514421)
(0.0003077101904 4.387245775e-14 -0.01259500769)
(0.0002935100919 4.391148903e-14 -0.01259484134)
(0.0002773093526 4.395615816e-14 -0.01259465155)
(0.0002597306777 4.400473042e-14 -0.01259444561)
(0.0002414493891 4.40550374e-14 -0.01259423145)
(0.0002231681005 4.410534438e-14 -0.01259401728)
(0.0002055894257 4.415304927e-14 -0.01259381135)
(0.0001893886864 4.41977184e-14 -0.01259362156)
(0.0001751885879 4.423674968e-14 -0.01259345521)
(0.0001635349724 4.426884206e-14 -0.01259331868)
(0.0001548755244 4.429269451e-14 -0.01259321724)
(0.0001495431373 4.430743966e-14 -0.01259315477)
(0.000156188248 7.820333706e-14 -0.01364820734)
(0.000158049087 7.819851537e-14 -0.01364822987)
(0.0001635599404 7.818398706e-14 -0.01364829659)
(0.0001725092059 7.816013461e-14 -0.01364840494)
(0.0001845528487 7.812847591e-14 -0.01364855075)
(0.0001992282012 7.808987831e-14 -0.01364872843)
(0.0002159711526 7.804564287e-14 -0.01364893114)
(0.0002341381568 7.799750429e-14 -0.01364915109)
(0.0002530312901 7.794806467e-14 -0.01364937983)
(0.0002719244234 7.789862505e-14 -0.01364960857)
(0.0002900914276 7.785048647e-14 -0.01364982853)
(0.000306834379 7.780625103e-14 -0.01365003123)
(0.0003215097315 7.776765343e-14 -0.01365020891)
(0.0003335533743 7.773599472e-14 -0.01365035473)
(0.0003425026399 7.771257596e-14 -0.01365046308)
(0.0003480134932 7.769804765e-14 -0.0136505298)
(0.0003498743322 7.769314765e-14 -0.01365055233)
(0.0003480134932 7.769804765e-14 -0.0136505298)
(0.0003425026399 7.771257596e-14 -0.01365046308)
(0.0003335533743 7.773599472e-14 -0.01365035473)
(0.0003215097315 7.776765343e-14 -0.01365020891)
(0.000306834379 7.780625103e-14 -0.01365003123)
(0.0002900914276 7.785048647e-14 -0.01364982853)
(0.0002719244234 7.789862505e-14 -0.01364960857)
(0.0002530312901 7.794806467e-14 -0.01364937983)
(0.0002341381568 7.799750429e-14 -0.01364915109)
(0.0002159711526 7.804564287e-14 -0.01364893114)
(0.0001992282012 7.808987831e-14 -0.01364872843)
(0.0001845528487 7.812847591e-14 -0.01364855075)
(0.0001725092059 7.816013461e-14 -0.01364840494)
(0.0001635599404 7.818398706e-14 -0.01364829659)
(0.000158049087 7.819851537e-14 -0.01364822987)
(0.0001637350501 1.186534071e-13 -0.01473828982)
(0.0001656571204 1.186485805e-13 -0.01473831386)
(0.0001713493093 1.186342691e-13 -0.01473838504)
(0.000180593052 1.186108503e-13 -0.01473850064)
(0.0001930329931 1.185791916e-13 -0.01473865621)
(0.0002081912408 1.185410277e-13 -0.01473884578)
(0.0002254851221 1.184976596e-13 -0.01473906205)
(0.0002442499149 1.184503884e-13 -0.01473929671)
(0.0002637647302 1.184009488e-13 -0.01473954076)
(0.0002832795455 1.183515091e-13 -0.01473978481)
(0.0003020443382 1.183042379e-13 -0.01474001947)
(0.0003193382196 1.182608698e-13 -0.01474023574)
(0.0003344964672 1.182227059e-13 -0.01474042531)
(0.0003469364083 1.181910472e-13 -0.01474058088)
(0.000356180151 1.181680621e-13 -0.01474069648)
(0.00036187234 1.181537507e-13 -0.01474076766)
(0.0003637944103 1.181489872e-13 -0.0147407917)
(0.00036187234 1.181537507e-13 -0.01474076766)
(0.000356180151 1.181680621e-13 -0.01474069648)
(0.0003469364083 1.181910472e-13 -0.01474058088)
(0.0003344964672 1.182227059e-13 -0.01474042531)
(0.0003193382196 1.182608698e-13 -0.01474023574)
(0.0003020443382 1.183042379e-13 -0.01474001947)
(0.0002832795455 1.183515091e-13 -0.01473978481)
(0.0002637647302 1.184009488e-13 -0.01473954076)
(0.0002442499149 1.184503884e-13 -0.01473929671)
(0.0002254851221 1.184976596e-13 -0.01473906205)
(0.0002081912408 1.185410277e-13 -0.01473884578)
(0.0001930329931 1.185791916e-13 -0.01473865621)
(0.000180593052 1.186108503e-13 -0.01473850064)
(0.0001713493093 1.186342691e-13 -0.01473838504)
(0.0001656571204 1.186485805e-13 -0.01473831386)
(0.0001703625944 1.663923208e-13 -0.0158638357)
(0.0001723465032 1.663875201e-13 -0.01586386131)