/*--------------------------------*- C++ -*----------------------------------*\
| =========                 |                                                 |
| \\      /  F ield         | OpenFOAM: The Open Source CFD Toolbox           |
|  \\    /   O peration     | Version:  2312                                  |
|   \\  /    A nd           | Website:  www.openfoam.com                      |
|    \\/     M anipulation  |                                                 |
\*---------------------------------------------------------------------------*/
FoamFile
{
    version     2.0;
    format      ascii;
    arch        "LSB;label=32;scalar=64";
    class       surfaceVectorField;
    location    "0.14/beam";
    object      Q;
}
// * * * * * * * * * * * * * * * * * * * * * * * * * * * * * * * * * * * * * //

dimensions      [1 1 -2 0 0 0 0];

oriented        oriented;

internalField   nonuniform List<vector> 
59
(
(0.08226408624 -2.263427747e-14 -0.001334192905)
(0.08226373652 -2.157112831e-14 -0.001343676877)
(0.08226315679 -1.98066262e-14 -0.001359364528)
(0.08226235171 -1.735129432e-14 -0.001381081254)
(0.08226132773 -1.42186482e-14 -0.001408590088)
(0.08226009297 -1.042392877e-14 -0.001441598682)
(0.08225865708 -5.982413416e-15 -0.001479767612)
(0.08225703114 -9.072791255e-16 -0.001522719533)
(0.08225522744 4.79299453e-15 -0.001570048708)
(0.08225325929 1.111767188e-14 -0.001621330375)
(0.08225114082 1.807721423e-14 -0.001676129476)
(0.08224888675 2.569705719e-14 -0.001734008288)
(0.08224651221 3.402158488e-14 -0.001794532612)
(0.08224403254 4.311812637e-14 -0.001857276268)
(0.08224146317 5.308075486e-14 -0.001921823799)
(0.08223881952 6.403363137e-14 -0.001987771417)
(0.08223611694 7.613360876e-14 -0.002054726407)
(0.08223337073 8.957180265e-14 -0.002122305345)
(0.08223059617 1.045738493e-13 -0.002190131606)
(0.0822278086 1.213986099e-13 -0.002257832767)
(0.08222502347 1.403351481e-13 -0.002325038513)
(0.08222225641 1.616979052e-13 -0.002391379704)
(0.08221952358 1.858172424e-13 -0.002456481851)
(0.08221684003 2.130457024e-13 -0.002520004409)
(0.08221422297 2.437162035e-13 -0.002581566323)
(0.08221168698 2.781790849e-13 -0.002640860585)
(0.08220924838 3.167364346e-13 -0.002697552649)
(0.08220692026 3.596951201e-13 -0.00275139833)
(0.08220471636 4.072891494e-13 -0.002802152955)
(0.08220264633 4.597519329e-13 -0.002849679562)
(0.08220071928 5.172278103e-13 -0.002893866682)
(0.08219893953 5.798681788e-13 -0.002934720921)
(0.08219730988 6.477327397e-13 -0.002972290245)
(0.08219582823 7.209116599e-13 -0.003006736653)
(0.08219449066 7.99415084e-13 -0.00303826247)
(0.08219328898 8.833197241e-13 -0.003067162494)
(0.08219221371 9.726420141e-13 -0.003093752897)
(0.08219125253 1.067503533e-12 -0.003118406794)
(0.08219039292 1.16797999e-12 -0.003141487795)
(0.08218962127 1.274277545e-12 -0.00316337655)
(0.08218892509 1.386548565e-12 -0.003184412271)
(0.08218829227 1.505072308e-12 -0.003204918715)
(0.0821877128 1.630031144e-12 -0.00322515614)
(0.08218717793 1.7616953e-12 -0.003245352915)
(0.08218668129 1.900160666e-12 -0.003265667622)
(0.08218621791 2.045546762e-12 -0.003286228249)
(0.08218578492 2.197706828e-12 -0.00330710108)
(0.08218538043 2.356455429e-12 -0.003328335494)
(0.08218500401 2.521267023e-12 -0.003349934704)
(0.08218465564 2.691546754e-12 -0.003371902444)
(0.08218433609 2.86632787e-12 -0.003394211325)
(0.08218404607 3.044581671e-12 -0.00341684847)
(0.08218378663 3.224906943e-12 -0.003439779523)
(0.0821835585 3.405851251e-12 -0.003462992292)
(0.08218336254 3.585575302e-12 -0.003486456739)
(0.08218319925 3.762159784e-12 -0.003510167363)
(0.0821830692 3.933269129e-12 -0.003534100674)
(0.08218297266 4.096504335e-12 -0.003558257667)
(0.08218290996 4.249255034e-12 -0.003582620308)
)
;

boundaryField
{
    left
    {
        type            calculated;
        value           uniform (-0.08226420313 -6.788800531e-12 0.001331019565);
    }
    right
    {
        type            calculated;
        value           uniform (0.08218288119 -2.421608314e-12 -0.003607195183);
    }
    beam
    {
        type            empty;
        value           nonuniform List<vector> 0();
    }
}


// ************************************************************************* //
