/*--------------------------------*- C++ -*----------------------------------*\
| =========                 |                                                 |
| \\      /  F ield         | OpenFOAM: The Open Source CFD Toolbox           |
|  \\    /   O peration     | Version:  2312                                  |
|   \\  /    A nd           | Website:  www.openfoam.com                      |
|    \\/     M anipulation  |                                                 |
\*---------------------------------------------------------------------------*/
FoamFile
{
    version     2.0;
    format      ascii;
    arch        "LSB;label=32;scalar=64";
    class       volVectorField;
    location    "0.14/beam";
    object      Theta;
}
// * * * * * * * * * * * * * * * * * * * * * * * * * * * * * * * * * * * * * //

dimensions      [0 0 0 0 0 0 0];

internalField   nonuniform List<vector> 
60
(
(5.636559034e-14 0.01641368455 -9.660765434e-14)
(5.643472494e-14 0.01649017685 -8.747184929e-14)
(5.656970096e-14 0.01663870968 -6.939719394e-14)
(5.67637266e-14 0.01685991642 -4.248395303e-14)
(5.700713811e-14 0.01715020416 -6.871047969e-15)
(5.728797342e-14 0.01750741453 3.727856654e-14)
(5.759265204e-14 0.01792755179 8.979809106e-14)
(5.790667533e-14 0.01840687687 1.50538719e-13)
(5.821543775e-14 0.01894080371 2.194032761e-13)
(5.850485161e-14 0.0195247145 2.963765624e-13)
(5.876191303e-14 0.02015362411 3.815636899e-13)
(5.897521715e-14 0.02082252309 4.752347836e-13)
(5.913516324e-14 0.02152629802 5.778655058e-13)
(5.923401142e-14 0.02225988298 6.901792239e-13)
(5.926579932e-14 0.02301824777 8.131889098e-13)
(5.922607519e-14 0.02379645777 9.482330018e-13)
(5.911149726e-14 0.0245896662 1.097003498e-12)
(5.89193159e-14 0.02539312569 1.26156292e-12)
(5.864699227e-14 0.02620217294 1.444354784e-12)
(5.829149448e-14 0.02701222156 1.648186488e-12)
(5.784896377e-14 0.02781875084 1.876207172e-12)
(5.731432466e-14 0.02861730673 2.13186446e-12)
(5.668103555e-14 0.02940346986 2.418823962e-12)
(5.594073345e-14 0.03017306314 2.740963152e-12)
(5.508362142e-14 0.03092193449 3.102183659e-12)
(5.409799545e-14 0.03164620526 3.506384886e-12)
(5.297088028e-14 0.03234231253 3.957342046e-12)
(5.168764697e-14 0.03300710908 4.458637046e-12)
(5.023270702e-14 0.0336379693 5.013538221e-12)
(4.858905907e-14 0.03423289214 5.625011475e-12)
(4.674091542e-14 0.03479059162 6.295645936e-12)
(4.466564727e-14 0.03531056486 7.027569112e-12)
(4.234536299e-14 0.03579312933 7.822647725e-12)
(3.975863047e-14 0.03623942205 8.682464174e-12)
(3.688314423e-14 0.03665135795 9.608373233e-12)
(3.369448632e-14 0.03703154649 1.060166286e-11)
(3.016681623e-14 0.03738317141 1.166363225e-11)
(2.627109979e-14 0.03770984046 1.27957108e-11)
(2.197505361e-14 0.03801541626 1.39995159e-11)
(1.723954953e-14 0.03830384088 1.527688224e-11)
(1.201563155e-14 0.03857896671 1.662981539e-11)
(6.23566736e-15 0.03884440715 1.806037635e-11)
(-1.976720496e-16 0.03910341487 1.957047792e-11)
(-7.432553005e-15 0.03935879797 2.116160273e-11)
(-1.569597831e-14 0.03961286999 2.28344456e-11)
(-2.533780727e-14 0.03986744307 2.458849926e-11)
(-3.688594487e-14 0.04012384023 2.642160242e-11)
(-5.111947974e-14 0.04038294851 2.83294729e-11)
(-6.914519434e-14 0.04064525074 3.030524667e-11)
(-9.246931913e-14 0.04091090741 3.233903597e-11)
(-1.23013382e-13 0.04117973212 3.44175368e-11)
(-1.630160154e-13 0.0414512776 3.652369489e-11)
(-2.146782032e-13 0.04172461399 3.863649797e-11)
(-2.793669124e-13 0.04199841914 4.073100404e-11)
(-3.560611784e-13 0.04227022273 4.277881272e-11)
(-4.386777401e-13 0.04253653851 4.474931637e-11)
(-5.118500359e-13 0.0427906471 4.661213565e-11)
(-5.450161855e-13 0.04302286168 4.834106301e-11)
(-4.854264316e-13 0.04321421579 4.991905881e-11)
(-2.528145535e-13 0.04333703578 5.134143293e-11)
)
;

boundaryField
{
    left
    {
        type            momentBeamRotationNR;
        value           uniform (5.636559034e-14 0.01641368455 -9.660765434e-14);
        momentSeries    
{
        file            "$FOAM_CASE/constant/beam/timeVsMoment";
        outOfBounds     clamp;
}
        moment          uniform (0 0 0);
    }
    right
    {
        type            momentBeamRotationNR;
        value           uniform (-2.528145535e-13 0.04333703578 5.134143293e-11);
        momentSeries    
{
        file            "$FOAM_CASE/constant/beam/timeVsMoment";
        outOfBounds     clamp;
}
        moment          uniform (0 0 0);
    }
    beam
    {
        type            empty;
    }
}


// ************************************************************************* //
