/*--------------------------------*- C++ -*----------------------------------*\
| =========                 |                                                 |
| \\      /  F ield         | OpenFOAM: The Open Source CFD Toolbox           |
|  \\    /   O peration     | Version:  2312                                  |
|   \\  /    A nd           | Website:  www.openfoam.com                      |
|    \\/     M anipulation  |                                                 |
\*---------------------------------------------------------------------------*/
FoamFile
{
    version     2.0;
    format      ascii;
    arch        "LSB;label=32;scalar=64";
    class       volVectorField;
    location    "0.14/beam";
    object      W;
}
// * * * * * * * * * * * * * * * * * * * * * * * * * * * * * * * * * * * * * //

dimensions      [0 1 0 0 0 0 0];

internalField   nonuniform List<vector> 
60
(
(9.079186577e-06 -4.486270073e-15 -0.0003644847192)
(2.721046627e-05 -1.527090053e-14 -0.001095097502)
(4.526038718e-05 -2.549266639e-14 -0.001830622812)
(6.317446889e-05 -3.477910562e-14 -0.002574277815)
(8.089791126e-05 -4.276156281e-14 -0.00332919461)
(9.837553645e-05 -4.907602951e-14 -0.004098389539)
(0.0001155517962 -5.336326446e-14 -0.004884735616)
(0.00013237085 -5.52680219e-14 -0.005690938674)
(0.0001487767175 -5.443714869e-14 -0.006519517595)
(0.0001647135028 -5.051629527e-14 -0.007372788847)
(0.0001801256834 -4.314523717e-14 -0.008252855263)
(0.0001949584542 -3.19514015e-14 -0.009161598782)
(0.0002091581186 -1.654161799e-14 -0.01010067677)
(0.0002226725156 3.507891603e-15 -0.01107152128)
(0.0002354514756 2.866328215e-14 -0.01207534059)
(0.0002474473027 5.944649365e-14 -0.01311312231)
(0.0002586152775 9.644999105e-14 -0.01418563736)
(0.0002689141828 1.403524032e-13 -0.01529344416)
(0.0002783068485 1.919346966e-13 -0.01643689272)
(0.0002867607146 2.5209609e-13 -0.01761612817)
(0.0002942484025 3.21869023e-13 -0.01883109399)
(0.000300748282 4.024325652e-13 -0.02008153493)
(0.0003062447015 4.951181214e-13 -0.02136692766)
(0.0003107298278 6.014366394e-13 -0.02268677143)
(0.0003142017141 7.230577307e-13 -0.02404017391)
(0.0003166665961 8.61818838e-13 -0.02542612347)
(0.0003181377429 1.019730323e-12 -0.02684345843)
(0.0003186362129 1.198950528e-12 -0.02829085447)
(0.0003181895694 1.4017916e-12 -0.02976687312)
(0.0003168320805 1.630683778e-12 -0.03126996062)
(0.000314602954 1.888181797e-12 -0.03279850277)
(0.0003115459724 2.176919881e-12 -0.03435083434)
(0.000307707366 2.499621572e-12 -0.03592529685)
(0.0003031350518 2.859057546e-12 -0.03752025407)
(0.0002978764179 3.258065079e-12 -0.0391341467)
(0.0002919774778 3.699507019e-12 -0.0407655071)
(0.0002854809153 4.186307544e-12 -0.04241300381)
(0.0002784254986 4.721416359e-12 -0.04407544848)
(0.000270844681 5.307859179e-12 -0.04575182493)
(0.0002627665231 5.948703479e-12 -0.04744128347)
(0.0002542129777 6.647117196e-12 -0.04914315288)
(0.0002452003822 7.406326121e-12 -0.05085692161)
(0.0002357393532 8.229668951e-12 -0.05258223548)
(0.0002258357265 9.120532423e-12 -0.05431886923)
(0.0002154908325 1.008238923e-11 -0.05606671612)
(0.0002047026563 1.111869819e-11 -0.0578257556)
(0.00019346622 1.223291547e-11 -0.05959604162)
(0.0001817747423 1.342835373e-11 -0.0613776719)
(0.0001696199287 1.470816474e-11 -0.06317077966)
(0.0001569930163 1.607515911e-11 -0.06497550705)
(0.0001438849306 1.753176196e-11 -0.06679200108)
(0.0001302872923 1.907979336e-11 -0.06862038912)
(0.0001161926401 2.072038556e-11 -0.07046077394)
(0.0001015957782 2.24536975e-11 -0.07231320221)
(8.649471498e-05 2.427873254e-11 -0.07417764362)
(7.089340408e-05 2.619288384e-11 -0.0760539282)
(5.480515885e-05 2.819146615e-11 -0.07794166976)
(3.825967775e-05 3.026679072e-11 -0.07984010716)
(2.131382535e-05 3.240688828e-11 -0.08174786197)
(4.070992093e-06 3.459324239e-11 -0.08366250069)
)
;

boundaryField
{
    left
    {
        type            fixedValue;
        value           uniform (0 0 0);
    }
    right
    {
        type            fixedValue;
        value           uniform (-4.609117352e-06 3.569432507e-11 -0.08462126493);
    }
    beam
    {
        type            empty;
    }
}


// ************************************************************************* //
