/*--------------------------------*- C++ -*----------------------------------*\
| =========                 |                                                 |
| \\      /  F ield         | OpenFOAM: The Open Source CFD Toolbox           |
|  \\    /   O peration     | Version:  2312                                  |
|   \\  /    A nd           | Website:  www.openfoam.com                      |
|    \\/     M anipulation  |                                                 |
\*---------------------------------------------------------------------------*/
FoamFile
{
    version     2.0;
    format      ascii;
    arch        "LSB;label=32;scalar=64";
    class       volScalarField;
    location    "0.06";
    object      p;
}
// * * * * * * * * * * * * * * * * * * * * * * * * * * * * * * * * * * * * * //

dimensions      [1 -1 -2 0 0 0 0];

internalField   nonuniform List<scalar> 
299556
(
19.37475264
19.37475795
19.37476329
19.37476868
19.37477415
19.37477971
19.37478538
19.3747912
19.37479717
19.37480331
19.37480966
19.37481623
19.37482303
19.3748301
19.37483744
19.37484508
19.37485304
19.37486134
19.37486998
19.374879
19.37488839
19.37489818
19.37490837
19.37491898
19.37493001
19.37494146
19.37495335
19.37496565
19.37497838
19.37499152
19.37500506
19.37501898
19.37503325
19.37504785
19.37506275
19.3750779
19.37509326
19.37510879
19.37512441
19.37514007
19.3751557
19.37517123
19.37518657
19.37520164
19.37521635
19.37523061
19.37524432
19.37525739
19.37526971
19.3752812
19.37529175
19.37530127
19.37530967
19.37531687
19.37532279
19.37532736
19.37533052
19.37533222
19.37533242
19.37533109
19.37532821
19.37532376
19.37531777
19.37531023
19.37530118
19.37529065
19.37527869
19.37526534
19.37525067
19.37523475
19.37521764
19.37519943
19.37518018
19.37515997
19.37513889
19.37511701
19.37509441
19.37507116
19.37504733
19.37502299
19.3749982
19.37497302
19.37494751
19.37492171
19.37489567
19.37486944
19.37484306
19.37481655
19.37478997
19.37476333
19.3747579
19.37477376
19.37478972
19.37480583
19.37482216
19.37483878
19.37485574
19.37487311
19.37489095
19.37490932
19.37492828
19.3749479
19.37496824
19.37498935
19.3750113
19.37503414
19.37505793
19.37508271
19.37510855
19.37513548
19.37516355
19.3751928
19.37522327
19.37525497
19.37528793
19.37532217
19.37535768
19.37539447
19.37543251
19.37547178
19.37551224
19.37555384
19.3755965
19.37564014
19.37568467
19.37572996
19.37577588
19.37582228
19.37586898
19.3759158
19.37596253
19.37600895
19.37605481
19.37609987
19.37614385
19.37618648
19.37622748
19.37626655
19.3763034
19.37633774
19.37636928
19.37639774
19.37642287
19.37644439
19.3764621
19.37647577
19.37648523
19.37649032
19.37649093
19.37648695
19.37647833
19.37646505
19.37644713
19.37642459
19.37639754
19.37636606
19.37633029
19.37629039
19.37624654
19.37619894
19.3761478
19.37609335
19.3760358
19.3759754
19.37591239
19.37584699
19.37577942
19.37570992
19.37563869
19.37556594
19.37549184
19.37541657
19.37534031
19.3752632
19.37518538
19.37510698
19.37502812
19.37494891
19.37486945
19.37478985
19.37476311
19.37478943
19.3748159
19.37484264
19.37486973
19.3748973
19.37492544
19.37495426
19.37498386
19.37501434
19.37504581
19.37507837
19.37511211
19.37514714
19.37518356
19.37522146
19.37526092
19.37530205
19.37534492
19.37538961
19.37543619
19.37548473
19.37553528
19.37558789
19.37564258
19.3756994
19.37575833
19.37581937
19.37588251
19.37594768
19.37601482
19.37608385
19.37615466
19.37622709
19.37630099
19.37637616
19.37645237
19.37652938
19.3766069
19.37668462
19.37676218
19.37683923
19.37691536
19.37699015
19.37706317
19.37713394
19.377202
19.37726687
19.37732805
19.37738506
19.37743743
19.3774847
19.37752642
19.37756217
19.37759157
19.37761428
19.37762999
19.37763846
19.37763946
19.37763286
19.37761856
19.37759653
19.37756677
19.37752937
19.37748446
19.3774322
19.37737283
19.3773066
19.37723381
19.3771548
19.3770699
19.37697951
19.37688399
19.37678374
19.37667914
19.37657058
19.37645844
19.37634309
19.37622487
19.37610411
19.37598113
19.37585622
19.37572965
19.37560168
19.37547253
19.37534242
19.37521155
19.37508009
19.37494823
19.37481613
19.37476824
19.37480485
19.37484168
19.37487887
19.37491657
19.37495492
19.37499407
19.37503416
19.37507534
19.37511774
19.37516152
19.37520681
19.37525376
19.37530249
19.37535316
19.37540588
19.37546079
19.37551801
19.37557765
19.37563983
19.37570463
19.37577217
19.3758425
19.37591569
19.3759918
19.37607085
19.37615285
19.37623779
19.37632563
19.37641632
19.37650976
19.37660582
19.37670434
19.37680515
19.37690799
19.37701261
19.37711868
19.37722586
19.37733376
19.37744193
19.37754989
19.37765714
19.37776312
19.37786724
19.37796889
19.37806742
19.37816218
19.37825249
19.37833768
19.37841706
19.37848999
19.37855581
19.37861391
19.3786637
19.37870465
19.37873629
19.37875818
19.37876998
19.3787714
19.37876223
19.37874233
19.37871166
19.37867025
19.37861819
19.37855566
19.37848292
19.37840027
19.37830807
19.37820675
19.37809676
19.37797859
19.37785276
19.3777198
19.37758026
19.37743467
19.37728357
19.3771275
19.37696695
19.37680241
19.37663435
19.3764632
19.37628937
19.37611323
19.37593514
19.37575542
19.37557436
19.37539225
19.37520933
19.37502584
19.37484202
19.37477325
19.37481993
19.37486689
19.37491431
19.37496238
19.37501128
19.37506119
19.37511231
19.37516481
19.37521888
19.3752747
19.37533245
19.37539231
19.37545446
19.37551906
19.37558628
19.3756563
19.37572926
19.37580531
19.3758846
19.37596724
19.37605336
19.37614305
19.37623639
19.37633345
19.37643426
19.37653883
19.37664717
19.3767592
19.37687487
19.37699404
19.37711657
19.37724224
19.37737082
19.37750202
19.37763547
19.37777079
19.37790754
19.37804519
19.3781832
19.37832096
19.37845781
19.37859305
19.37872592
19.37885564
19.37898139
19.37910233
19.3792176
19.37932633
19.37942767
19.37952077
19.3796048
19.37967897
19.37974255
19.37979485
19.37983526
19.37986323
19.37987831
19.37988015
19.37986846
19.37984309
19.37980397
19.37975113
19.3796847
19.37960492
19.3795121
19.37940663
19.37928898
19.37915969
19.37901933
19.37886855
19.37870799
19.37853834
19.37836029
19.37817454
19.37798176
19.37778264
19.37757782
19.37736791
19.37715352
19.37693519
19.37671345
19.37648878
19.37626161
19.37603238
19.37580144
19.37556915
19.37533584
19.37510182
19.37486736
19.37477813
19.37483459
19.37489139
19.37494874
19.37500688
19.37506603
19.37512641
19.37518824
19.37525174
19.37531714
19.37538466
19.37545452
19.37552692
19.37560209
19.37568024
19.37576156
19.37584625
19.37593451
19.37602651
19.37612243
19.3762224
19.37632658
19.37643509
19.37654801
19.37666543
19.3767874
19.37691393
19.37704501
19.37718057
19.37732052
19.37746473
19.377613
19.37776508
19.37792069
19.37807947
19.37824099
19.37840477
19.37857029
19.37873691
19.37890398
19.37907075
19.37923643
19.37940016
19.37956104
19.37971812
19.37987039
19.38001685
19.38015645
19.38028815
19.38041089
19.38052366
19.38062546
19.38071532
19.38079235
19.38085573
19.3809047
19.38093861
19.38095691
19.38095918
19.38094506
19.38091436
19.38086702
19.38080305
19.38072264
19.38062605
19.38051367
19.38038597
19.38024353
19.38008699
19.37991706
19.37973451
19.37954013
19.37933476
19.37911922
19.37889436
19.37866101
19.37841998
19.37817206
19.37791801
19.37765853
19.3773943
19.37712594
19.37685405
19.37657915
19.37630174
19.37602228
19.3757412
19.37545888
19.3751757
19.37489201
19.37478282
19.37484872
19.37491501
19.37498195
19.37504981
19.37511884
19.3751893
19.37526147
19.37533558
19.37541192
19.37549072
19.37557225
19.37565676
19.3757445
19.37583571
19.37593063
19.37602948
19.3761325
19.37623989
19.37635185
19.37646855
19.37659016
19.37671682
19.37684865
19.37698573
19.37712812
19.37727584
19.37742887
19.37758715
19.37775056
19.37791895
19.37809208
19.37826968
19.37845139
19.37863682
19.37882546
19.37901676
19.37921009
19.37940472
19.37959989
19.37979472
19.37998828
19.38017959
19.38036757
19.38055111
19.38072906
19.38090023
19.38106339
19.38121733
19.38136081
19.38149264
19.38161165
19.38171672
19.3818068
19.38188092
19.38193821
19.3819779
19.38199934
19.38200203
19.38198558
19.38194975
19.38189445
19.38181974
19.38172579
19.38161294
19.38148164
19.38133244
19.38116601
19.38098311
19.38078457
19.38057129
19.3803442
19.38010427
19.37985247
19.3795898
19.37931722
19.37903568
19.37874611
19.37844938
19.37814633
19.37783774
19.37752435
19.37720683
19.37688582
19.37656188
19.37623556
19.37590735
19.37557771
19.37524706
19.37491581
19.37478732
19.37486225
19.37493762
19.37501373
19.37509089
19.37516938
19.3752495
19.37533155
19.37541583
19.37550262
19.37559223
19.37568493
19.37578103
19.37588079
19.37598451
19.37609244
19.37620486
19.37632201
19.37644413
19.37657145
19.37670417
19.37684247
19.37698653
19.37713646
19.37729237
19.37745432
19.37762234
19.37779641
19.37797645
19.37816234
19.3783539
19.37855086
19.37875292
19.37895968
19.37917066
19.37938531
19.37960301
19.37982302
19.38004453
19.38026666
19.38048843
19.38070877
19.38092655
19.38114056
19.38134954
19.38155216
19.38174708
19.38193289
19.38210821
19.38227164
19.3824218
19.38255738
19.38267709
19.38277973
19.3828642
19.38292951
19.38297477
19.38299925
19.38300238
19.3829837
19.38294295
19.38288003
19.382795
19.38268806
19.3825596
19.38241012
19.38224027
19.3820508
19.38184259
19.38161658
19.38137379
19.38111529
19.38084218
19.38055559
19.38025662
19.37994639
19.37962599
19.37929646
19.37895879
19.37861395
19.37826282
19.37790624
19.37754498
19.37717975
19.37681122
19.37643998
19.3760666
19.37569159
19.37531545
19.37493863
19.37479159
19.37487508
19.37495908
19.37504389
19.37512987
19.37521734
19.37530662
19.37539806
19.37549197
19.37558869
19.37568855
19.37579186
19.37589896
19.37601014
19.37612573
19.37624602
19.3763713
19.37650187
19.37663798
19.37677988
19.37692781
19.37708196
19.37724253
19.37740965
19.37758345
19.37776398
19.37795129
19.37814535
19.37834607
19.37855333
19.3787669
19.37898652
19.37921184
19.3794424
19.37967768
19.37991708
19.38015988
19.38040529
19.38065238
19.38090018
19.38114759
19.38139343
19.38163643
19.38187524
19.38210846
19.3823346
19.38255215
19.38275956
19.38295527
19.38313772
19.38330539
19.38345678
19.38359047
19.38370511
19.38379948
19.38387244
19.38392304
19.38395044
19.38395401
19.38393322
19.38388781
19.38381764
19.38372278
19.38360348
19.38346015
19.38329336
19.38310383
19.38289243
19.3826601
19.38240793
19.38213704
19.38184863
19.38154393
19.3812242
19.38089069
19.38054464
19.38018725
19.37981969
19.37944309
19.37905849
19.37866691
19.37826925
19.3778664
19.37745914
19.3770482
19.37663427
19.37621795
19.37579982
19.37538044
19.37496031
19.3747956
19.37488715
19.37497924
19.37507224
19.37516651
19.37526242
19.37536032
19.37546058
19.37556355
19.37566961
19.3757791
19.37589239
19.37600982
19.37613174
19.37625848
19.37639039
19.37652778
19.37667096
19.37682023
19.37697585
19.37713808
19.37730714
19.37748325
19.37766654
19.37785717
19.37805519
19.37826065
19.37847352
19.37869371
19.37892108
19.37915539
19.37939635
19.37964356
19.37989655
19.38015474
19.38041746
19.38068392
19.38095326
19.38122448
19.38149649
19.38176809
19.38203798
19.38230478
19.382567
19.3828231
19.38307145
19.38331038
19.3835382
19.38375318
19.38395362
19.38413784
19.38430418
19.38445109
19.3845771
19.38468083
19.38476106
19.38481672
19.3848469
19.3848509
19.38482815
19.38477834
19.38470134
19.38459722
19.38446625
19.38430889
19.38412577
19.38391768
19.38368556
19.38343048
19.38315362
19.38285621
19.38253959
19.38220509
19.38185411
19.38148802
19.38110818
19.38071592
19.38031252
19.37989921
19.37947716
19.37904745
19.37861111
19.37816907
19.37772222
19.37727135
19.3768172
19.37636045
19.37590173
19.37544163
19.37498072
19.37479933
19.37489837
19.374998
19.37509861
19.37520059
19.37530434
19.37541026
19.37551872
19.37563012
19.37574486
19.37586332
19.37598588
19.37611293
19.37624483
19.37638196
19.37652468
19.37667333
19.37682825
19.37698975
19.37715814
19.37733368
19.37751662
19.37770718
19.37790554
19.37811183
19.37832613
19.37854849
19.37877888
19.37901721
19.37926331
19.37951694
19.37977778
19.3800454
19.38031929
19.38059883
19.38088329
19.38117182
19.38146349
19.38175721
19.38205181
19.38234599
19.38263834
19.38292736
19.38321145
19.38348892
19.38375802
19.38401693
19.38426383
19.38449684
19.3847141
19.3849138
19.38509414
19.38525343
19.38539007
19.38550258
19.38558962
19.38565004
19.38568285
19.38568727
19.3856627
19.3856088
19.38552543
19.38541267
19.38527081
19.38510035
19.38490197
19.38467655
19.38442509
19.38414877
19.38384885
19.38352669
19.38318372
19.38282142
19.38244127
19.38204478
19.38163342
19.38120863
19.3807718
19.38032426
19.37986728
19.37940203
19.37892962
19.37845107
19.37796732
19.37747924
19.37698762
19.37649321
19.37599666
19.37549864
19.37499973
19.37480276
19.37490868
19.37501523
19.37512283
19.3752319
19.37534286
19.37545613
19.37557213
19.37569128
19.37581399
19.37594068
19.37607177
19.37620765
19.37634873
19.3764954
19.37664805
19.37680705
19.37697275
19.3771455
19.37732562
19.3775134
19.3777091
19.37791295
19.37812515
19.37834584
19.37857512
19.37881302
19.37905952
19.37931453
19.37957786
19.37984927
19.38012841
19.38041482
19.38070795
19.38100714
19.38131162
19.38162049
19.38193272
19.38224718
19.3825626
19.38287759
19.38319065
19.38350016
19.38380442
19.38410161
19.38438986
19.38466723
19.38493174
19.38518139
19.3854142
19.3856282
19.38582148
19.38599222
19.3861387
19.38625933
19.38635268
19.38641751
19.38645275
19.38645759
19.38643136
19.3863737
19.38628447
19.38616374
19.38601184
19.3858293
19.38561686
19.38537544
19.38510616
19.38481024
19.38448905
19.38414407
19.38377681
19.38338887
19.38298184
19.38255733
19.38211692
19.38166216
19.38119454
19.38071548
19.38022633
19.37972835
19.37922274
19.37871057
19.37819286
19.37767053
19.37714444
19.37661535
19.37608401
19.37555109
19.37501723
19.37480586
19.37491801
19.37503082
19.37514475
19.37526023
19.37537772
19.37549765
19.37562047
19.37574663
19.37587656
19.37601071
19.37614951
19.37629339
19.37644278
19.37659809
19.37675973
19.37692809
19.37710357
19.37728651
19.37747725
19.3776761
19.37788336
19.37809925
19.37832399
19.37855773
19.37880058
19.37905257
19.37931367
19.3795838
19.37986276
19.38015029
19.38044601
19.38074946
19.38106004
19.38137707
19.38169972
19.38202703
19.38235794
19.38269122
19.38302555
19.38335944
19.38369131
19.38401945
19.38434204
19.38465716
19.38496283
19.38525697
19.38553751
19.38580231
19.38604926
19.38627628
19.38648135
19.38666252
19.38681796
19.386946
19.38704512
19.38711397
19.38715145
19.38715667
19.38712895
19.38706789
19.38697333
19.38684538
19.38668436
19.38649084
19.38626562
19.38600967
19.38572418
19.38541045
19.38506995
19.38470422
19.3843149
19.38390367
19.38347222
19.38302227
19.38255549
19.38207352
19.38157795
19.38107027
19.38055193
19.38002427
19.37948853
19.37894587
19.37839736
19.37784398
19.37728661
19.3767261
19.3761632
19.37559864
19.37503309
19.37480862
19.3749263
19.37504468
19.37516424
19.37528542
19.37540871
19.37553456
19.37566345
19.37579584
19.37593219
19.37607297
19.37621863
19.37636962
19.37652639
19.37668938
19.37685902
19.37703572
19.37721988
19.37741188
19.37761207
19.37782079
19.37803832
19.37826493
19.37850083
19.37874618
19.3790011
19.37926562
19.37953973
19.37982331
19.38011618
19.38041806
19.38072856
19.38104718
19.38137332
19.38170624
19.38204507
19.38238883
19.38273638
19.38308645
19.38343764
19.38378839
19.38413705
19.3844818
19.38482075
19.38515188
19.38547309
19.38578223
19.38607708
19.38635541
19.38661501
19.38685367
19.38706927
19.38725977
19.38742324
19.38755791
19.38766218
19.38773465
19.38777414
19.38777973
19.38775068
19.38768659
19.38758729
19.38745289
19.38728373
19.38708043
19.38684379
19.38657488
19.38627492
19.38594531
19.38558757
19.38520334
19.38479433
19.38436233
19.38390911
19.38343646
19.38294617
19.38243994
19.38191945
19.38138628
19.38084193
19.38028781
19.37972523
19.37915541
19.37857946
19.37799842
19.37741321
19.37682471
19.37623371
19.37564098
19.37504721
19.37481102
19.37493351
19.37505673
19.37518117
19.37530731
19.37543564
19.37556664
19.3757008
19.3758386
19.37598054
19.37612707
19.37627869
19.37643587
19.37659906
19.37676873
19.37694532
19.37712926
19.37732097
19.37752085
19.37772925
19.37794654
19.37817301
19.37840893
19.37865454
19.37890999
19.37917541
19.37945083
19.37973625
19.38003154
19.38033652
19.38065089
19.38097425
19.38130608
19.38164575
19.3819925
19.38234544
19.38270352
19.38306557
19.38343026
19.38379614
19.3841616
19.38452488
19.38488413
19.38523735
19.38558244
19.38591721
19.38623943
19.38654677
19.38683692
19.38710755
19.38735639
19.38758119
19.38777984
19.38795033
19.3880908
19.38819958
19.38827522
19.38831647
19.38832238
19.38829219
19.38822547
19.38812205
19.38798203
19.38780578
19.38759393
19.38734735
19.38706714
19.38675456
19.38641109
19.38603832
19.38563796
19.3852118
19.38476168
19.38428948
19.38379707
19.38328628
19.38275892
19.38221672
19.38166134
19.38109434
19.38051718
19.37993124
19.37933777
19.37873795
19.37813282
19.37752338
19.37691052
19.37629507
19.37567782
19.3750595
19.37481304
19.37493958
19.37506689
19.37519545
19.37532576
19.37545834
19.37559368
19.37573229
19.37587466
19.37602129
19.37617268
19.37632933
19.37649171
19.37666032
19.37683562
19.37701807
19.37720812
19.3774062
19.37761272
19.37782806
19.37805257
19.37828658
19.37853036
19.37878415
19.37904812
19.3793224
19.37960702
19.37990198
19.38020716
19.38052236
19.38084727
19.38118148
19.38152446
19.38187557
19.38223401
19.38259885
19.38296903
19.38334333
19.38372038
19.38409868
19.38447655
19.38485221
19.38522371
19.38558899
19.38594589
19.38629215
19.38662543
19.38694334
19.38724349
19.38752348
19.38778092
19.38801352
19.38821908
19.38839551
19.38854089
19.3886535
19.38873183
19.38877459
19.38878078
19.38874963
19.38868069
19.38857378
19.38842901
19.38824677
19.3880277
19.38777271
19.38748294
19.3871597
19.38680451
19.38641903
19.38600503
19.38556436
19.38509894
19.3846107
19.38410157
19.38357347
19.38302826
19.38246772
19.38189357
19.38130744
19.38071083
19.38010515
19.37949172
19.37887173
19.37824627
19.37761637
19.37698295
19.37634687
19.37570892
19.37506987
19.37481467
19.37494449
19.37507509
19.37520697
19.37534066
19.37547667
19.37561552
19.37575771
19.37590377
19.3760542
19.37620952
19.37637022
19.37653682
19.3767098
19.37688964
19.37707683
19.37727181
19.37747503
19.37768692
19.37790785
19.37813821
19.37837831
19.37862844
19.37888884
19.3791597
19.37944113
19.3797332
19.38003587
19.38034903
19.38067249
19.38100592
19.38134891
19.38170092
19.38206127
19.38242915
19.38280363
19.38318359
19.38356781
19.38395486
19.38434321
19.38473114
19.38511681
19.38549823
19.38587328
19.38623975
19.3865953
19.38693754
19.38726403
19.38757229
19.38785984
19.38812427
19.38836319
19.38857435
19.3887556
19.38890497
19.38902069
19.3891012
19.38914519
19.38915162
19.3891197
19.38904896
19.38893923
19.38879062
19.38860352
19.38837861
19.38811681
19.38781929
19.38748742
19.38712275
19.38672698
19.38630193
19.38584952
19.38537171
19.38487048
19.38434783
19.38380572
19.38324606
19.38267068
19.38208136
19.38147975
19.3808674
19.38024576
19.37961618
19.37897989
19.378338
19.37769156
19.37704151
19.37638874
19.37573406
19.37507826
19.3748159
19.3749482
19.37508128
19.37521568
19.37535192
19.37549052
19.37563202
19.37577692
19.37592576
19.37607907
19.37623735
19.37640112
19.37657089
19.37674718
19.37693046
19.37712122
19.37731993
19.37752704
19.37774298
19.37796815
19.37820291
19.37844762
19.37870255
19.37896795
19.37924401
19.37953086
19.37982854
19.38013705
19.38045625
19.38078595
19.38112583
19.38147546
19.38183428
19.38220162
19.38257666
19.38295842
19.38334579
19.3837375
19.38413213
19.38452808
19.38492362
19.38531687
19.3857058
19.38608826
19.38646196
19.38682456
19.38717359
19.38750656
19.38782096
19.38811426
19.38838398
19.38862769
19.38884309
19.389028
19.3891804
19.38929848
19.38938065
19.38942556
19.38943218
19.38939967
19.38932758
19.38921571
19.38906419
19.38887342
19.38864409
19.38837714
19.38807376
19.38773535
19.38736349
19.38695993
19.38652653
19.38606522
19.38557803
19.38506698
19.38453409
19.38398138
19.38341078
19.38282419
19.38222338
19.38161006
19.3809858
19.3803521
19.37971031
19.37906167
19.37840736
19.37774841
19.37708579
19.3764204
19.37575307
19.3750846
19.37481673
19.37495068
19.37508544
19.37522152
19.37535947
19.37549981
19.37564307
19.3757898
19.3759405
19.37609573
19.376256
19.37642182
19.37659373
19.37677223
19.37695781
19.37715097
19.37735218
19.3775619
19.37778055
19.37800856
19.37824628
19.37849407
19.37875222
19.37902097
19.37930052
19.37959099
19.37989245
19.38020486
19.38052812
19.380862
19.3812062
19.38156028
19.38192368
19.38229571
19.38267554
19.38306219
19.38345453
19.38385128
19.38425098
19.38465203
19.38505268
19.38545102
19.38584499
19.38623241
19.38661098
19.3869783
19.38733189
19.38766923
19.38798775
19.3882849
19.38855817
19.3888051
19.38902336
19.38921072
19.38936516
19.38948482
19.3895681
19.38961365
19.38962038
19.38958749
19.38951449
19.38940119
19.38924772
19.38905448
19.38882218
19.38855177
19.38824445
19.38790166
19.38752498
19.38711619
19.38667718
19.38620991
19.38571642
19.38519877
19.38465902
19.38409919
19.38352126
19.38292713
19.38231862
19.38169745
19.38106521
19.38042341
19.37977342
19.37911652
19.37845387
19.37778653
19.37711548
19.37644163
19.37576582
19.37508885
19.37481714
19.37495193
19.37508752
19.37522445
19.37536325
19.37550446
19.37564862
19.37579625
19.3759479
19.37610409
19.37626535
19.37643221
19.37660519
19.37678479
19.37697153
19.37716589
19.37736836
19.37757938
19.3777994
19.37802882
19.37826803
19.37851737
19.37877713
19.37904756
19.37932886
19.37962116
19.37992451
19.38023888
19.38056417
19.38090015
19.38124652
19.38160284
19.38196853
19.38234292
19.38272515
19.38311425
19.38350909
19.38390836
19.38431061
19.38471422
19.38511744
19.38551833
19.38591483
19.38630474
19.38668575
19.38705545
19.38741133
19.38775085
19.38807144
19.38837053
19.38864559
19.38889414
19.38911382
19.38930242
19.38945788
19.38957834
19.38966218
19.38970804
19.38971484
19.38968175
19.38960829
19.38949428
19.38933983
19.38914536
19.38891156
19.38863941
19.38833012
19.38798512
19.38760603
19.38719461
19.38675278
19.38628252
19.38578587
19.38526491
19.38472171
19.38415831
19.3835767
19.38297879
19.38236642
19.3817413
19.38110505
19.38045919
19.37980509
19.37914404
19.37847721
19.37780566
19.37713038
19.37645228
19.37577221
19.37509098
19.37481714
19.37495193
19.37508752
19.37522445
19.37536325
19.37550446
19.37564862
19.37579625
19.3759479
19.37610409
19.37626535
19.37643221
19.37660519
19.37678479
19.37697153
19.37716589
19.37736836
19.37757938
19.3777994
19.37802882
19.37826803
19.37851737
19.37877713
19.37904756
19.37932886
19.37962116
19.37992451
19.38023888
19.38056417
19.38090015
19.38124652
19.38160284
19.38196853
19.38234292
19.38272515
19.38311425
19.38350909
19.38390836
19.38431061
19.38471422
19.38511744
19.38551833
19.38591483
19.38630474
19.38668575
19.38705545
19.38741133
19.38775085
19.38807144
19.38837053
19.38864559
19.38889414
19.38911382
19.38930242
19.38945788
19.38957834
19.38966218
19.38970804
19.38971484
19.38968175
19.38960829
19.38949428
19.38933983
19.38914536
19.38891156
19.38863941
19.38833012
19.38798512
19.38760603
19.38719461
19.38675278
19.38628252
19.38578587
19.38526491
19.38472171
19.38415831
19.3835767
19.38297879
19.38236642
19.3817413
19.38110505
19.38045919
19.37980509
19.37914404
19.37847721
19.37780566
19.37713038
19.37645228
19.37577221
19.37509098
19.37481673
19.37495068
19.37508544
19.37522152
19.37535947
19.37549981
19.37564307
19.3757898
19.3759405
19.37609573
19.376256
19.37642182
19.37659373
19.37677223
19.37695781
19.37715097
19.37735218
19.3775619
19.37778055
19.37800856
19.37824628
19.37849407
19.37875222
19.37902097
19.37930052
19.37959099
19.37989245
19.38020486
19.38052812
19.380862
19.3812062
19.38156028
19.38192368
19.38229571
19.38267554
19.38306219
19.38345453
19.38385128
19.38425098
19.38465203
19.38505268
19.38545102
19.38584499
19.38623241
19.38661098
19.3869783
19.38733189
19.38766923
19.38798775
19.3882849
19.38855817
19.38880511
19.38902336
19.38921072
19.38936516
19.38948482
19.3895681
19.38961365
19.38962039
19.38958749
19.38951449
19.38940119
19.38924772
19.38905449
19.38882218
19.38855177
19.38824446
19.38790166
19.38752498
19.38711619
19.38667718
19.38620991
19.38571642
19.38519877
19.38465902
19.38409919
19.38352126
19.38292713
19.38231862
19.38169745
19.38106521
19.38042341
19.37977342
19.37911652
19.37845387
19.37778653
19.37711548
19.37644163
19.37576582
19.37508885
19.3748159
19.3749482
19.37508128
19.37521568
19.37535192
19.37549052
19.37563202
19.37577692
19.37592576
19.37607907
19.37623735
19.37640112
19.37657089
19.37674718
19.37693046
19.37712122
19.37731993
19.37752704
19.37774298
19.37796815
19.37820291
19.37844762
19.37870255
19.37896795
19.37924401
19.37953086
19.37982854
19.38013705
19.38045625
19.38078595
19.38112583
19.38147546
19.38183428
19.38220162
19.38257666
19.38295842
19.38334579
19.3837375
19.38413213
19.38452808
19.38492362
19.38531687
19.3857058
19.38608826
19.38646196
19.38682456
19.38717359
19.38750657
19.38782096
19.38811426
19.38838398
19.38862769
19.3888431
19.389028
19.3891804
19.38929848
19.38938065
19.38942556
19.38943218
19.38939967
19.38932758
19.38921572
19.3890642
19.38887343
19.38864409
19.38837714
19.38807376
19.38773535
19.38736349
19.38695993
19.38652653
19.38606523
19.38557803
19.38506698
19.38453409
19.38398138
19.38341078
19.38282419
19.38222338
19.38161006
19.3809858
19.3803521
19.3797103
19.37906167
19.37840736
19.37774841
19.37708579
19.3764204
19.37575307
19.3750846
19.37481467
19.37494449
19.37507509
19.37520697
19.37534066
19.37547667
19.37561552
19.37575771
19.37590377
19.3760542
19.37620952
19.37637022
19.37653682
19.3767098
19.37688964
19.37707683
19.37727181
19.37747503
19.37768692
19.37790785
19.37813821
19.37837831
19.37862844
19.37888884
19.3791597
19.37944113
19.3797332
19.38003587
19.38034903
19.38067249
19.38100592
19.38134891
19.38170092
19.38206127
19.38242915
19.38280363
19.38318359
19.3835678
19.38395486
19.38434321
19.38473114
19.38511681
19.38549823
19.38587328
19.38623975
19.3865953
19.38693754
19.38726403
19.38757229
19.38785984
19.38812427
19.38836319
19.38857435
19.3887556
19.38890498
19.3890207
19.38910121
19.38914519
19.38915162
19.3891197
19.38904896
19.38893923
19.38879062
19.38860352
19.38837861
19.38811682
19.3878193
19.38748742
19.38712275
19.38672698
19.38630193
19.38584952
19.38537171
19.38487048
19.38434783
19.38380572
19.38324606
19.38267068
19.38208136
19.38147975
19.3808674
19.38024576
19.37961618
19.37897988
19.378338
19.37769156
19.37704151
19.37638874
19.37573406
19.37507826
19.37481304
19.37493958
19.37506689
19.37519545
19.37532576
19.37545834
19.37559368
19.37573229
19.37587466
19.37602129
19.37617268
19.37632933
19.37649171
19.37666032
19.37683562
19.37701807
19.37720812
19.3774062
19.37761272
19.37782805
19.37805257
19.37828658
19.37853036
19.37878415
19.37904812
19.37932239
19.37960702
19.37990198
19.38020716
19.38052235
19.38084726
19.38118148
19.38152446
19.38187557
19.382234
19.38259885
19.38296903
19.38334333
19.38372038
19.38409868
19.38447655
19.38485221
19.38522371
19.38558899
19.38594589
19.38629215
19.38662543
19.38694334
19.3872435
19.38752348
19.38778092
19.38801353
19.38821908
19.38839551
19.3885409
19.38865351
19.38873183
19.38877459
19.38878079
19.38874964
19.38868069
19.38857378
19.38842901
19.38824677
19.3880277
19.38777272
19.38748294
19.3871597
19.38680451
19.38641903
19.38600503
19.38556436
19.38509894
19.3846107
19.38410157
19.38357347
19.38302826
19.38246772
19.38189357
19.38130744
19.38071083
19.38010515
19.37949172
19.37887172
19.37824627
19.37761637
19.37698295
19.37634687
19.37570892
19.37506987
19.37481102
19.37493351
19.37505673
19.37518117
19.37530731
19.37543564
19.37556664
19.3757008
19.3758386
19.37598054
19.37612707
19.37627869
19.37643587
19.37659906
19.37676873
19.37694532
19.37712926
19.37732097
19.37752085
19.37772925
19.37794654
19.37817301
19.37840893
19.37865454
19.37890999
19.3791754
19.37945083
19.37973625
19.38003154
19.38033652
19.38065089
19.38097424
19.38130608
19.38164575
19.3819925
19.38234544
19.38270352
19.38306557
19.38343026
19.38379614
19.3841616
19.38452488
19.38488413
19.38523735
19.38558244
19.38591721
19.38623943
19.38654677
19.38683692
19.38710756
19.38735639
19.3875812
19.38777985
19.38795033
19.3880908
19.38819958
19.38827522
19.38831648
19.38832239
19.3882922
19.38822547
19.38812205
19.38798203
19.38780578
19.38759393
19.38734736
19.38706714
19.38675457
19.3864111
19.38603832
19.38563796
19.3852118
19.38476168
19.38428948
19.38379707
19.38328628
19.38275892
19.38221672
19.38166134
19.38109434
19.38051718
19.37993124
19.37933777
19.37873794
19.37813282
19.37752338
19.37691052
19.37629507
19.37567782
19.3750595
19.37480862
19.3749263
19.37504468
19.37516424
19.37528542
19.37540871
19.37553456
19.37566345
19.37579584
19.37593219
19.37607297
19.37621863
19.37636962
19.37652639
19.37668938
19.37685902
19.37703572
19.37721988
19.37741188
19.37761207
19.37782079
19.37803832
19.37826493
19.37850083
19.37874618
19.3790011
19.37926562
19.37953973
19.37982331
19.38011618
19.38041806
19.38072856
19.38104718
19.38137332
19.38170624
19.38204507
19.38238883
19.38273638
19.38308645
19.38343763
19.38378839
19.38413705
19.3844818
19.38482075
19.38515188
19.38547309
19.38578223
19.38607708
19.38635541
19.38661501
19.38685367
19.38706928
19.38725977
19.38742324
19.38755792
19.38766219
19.38773466
19.38777415
19.38777973
19.38775068
19.38768659
19.3875873
19.3874529
19.38728374
19.38708043
19.3868438
19.38657489
19.38627493
19.38594531
19.38558757
19.38520334
19.38479434
19.38436233
19.38390911
19.38343646
19.38294617
19.38243994
19.38191945
19.38138628
19.38084193
19.38028781
19.37972523
19.37915541
19.37857946
19.37799842
19.37741321
19.37682471
19.37623371
19.37564098
19.37504721
19.37480586
19.37491801
19.37503082
19.37514475
19.37526023
19.37537772
19.37549765
19.37562047
19.37574663
19.37587656
19.37601071
19.37614951
19.37629339
19.37644278