/*--------------------------------*- C++ -*----------------------------------*\
| =========                 |                                                 |
| \\      /  F ield         | OpenFOAM: The Open Source CFD Toolbox           |
|  \\    /   O peration     | Version:  2312                                  |
|   \\  /    A nd           | Website:  www.openfoam.com                      |
|    \\/     M anipulation  |                                                 |
\*---------------------------------------------------------------------------*/
FoamFile
{
    version     2.0;
    format      ascii;
    arch        "LSB;label=32;scalar=64";
    class       volScalarField;
    location    "0.18";
    object      p;
}
// * * * * * * * * * * * * * * * * * * * * * * * * * * * * * * * * * * * * * //

dimensions      [1 -1 -2 0 0 0 0];

internalField   nonuniform List<scalar> 
299556
(
19.37475443
19.37476334
19.37477231
19.37478138
19.37479061
19.37480003
19.3748097
19.37481965
19.37482992
19.37484057
19.37485164
19.37486318
19.37487523
19.37488784
19.37490106
19.37491493
19.37492949
19.37494481
19.37496092
19.37497787
19.37499569
19.37501444
19.37503415
19.37505485
19.37507658
19.37509937
19.37512324
19.37514821
19.37517428
19.37520145
19.37522973
19.37525908
19.37528948
19.3753209
19.37535326
19.3753865
19.37542054
19.37545527
19.37549057
19.37552631
19.37556232
19.37559844
19.37563447
19.37567021
19.37570544
19.37573991
19.37577338
19.3758056
19.3758363
19.37586522
19.37589209
19.37591665
19.37593866
19.37595788
19.37597408
19.37598708
19.37599669
19.37600277
19.37600522
19.37600393
19.37599887
19.37599003
19.37597742
19.3759611
19.37594116
19.37591771
19.37589089
19.37586088
19.37582785
19.375792
19.37575354
19.37571269
19.37566968
19.37562471
19.375578
19.37552976
19.37548019
19.37542947
19.37537776
19.37532523
19.37527202
19.37521825
19.37516402
19.37510943
19.37505455
19.37499946
19.3749442
19.37488882
19.37483334
19.3747778
19.37476324
19.37478985
19.37481665
19.37484376
19.37487134
19.37489949
19.37492837
19.37495809
19.37498879
19.37502062
19.3750537
19.37508817
19.37512417
19.37516185
19.37520134
19.37524278
19.37528632
19.37533208
19.37538022
19.37543086
19.37548412
19.37554014
19.37559904
19.37566091
19.37572586
19.37579397
19.3758653
19.37593991
19.37601782
19.37609905
19.37618355
19.37627129
19.37636217
19.37645606
19.37655281
19.37665219
19.37675395
19.37685778
19.37696332
19.37707017
19.37717785
19.37728586
19.37739361
19.37750049
19.37760583
19.37770893
19.37780905
19.37790542
19.37799726
19.37808377
19.37816415
19.37823765
19.3783035
19.378361
19.37840949
19.37844839
19.37847716
19.37849537
19.3785027
19.37849887
19.37848375
19.3784573
19.37841959
19.37837079
19.37831114
19.37824101
19.3781608
19.37807103
19.37797224
19.37786502
19.37775001
19.37762785
19.37749921
19.37736474
19.37722507
19.37708083
19.37693261
19.37678095
19.37662637
19.37646933
19.37631025
19.37614949
19.37598739
19.3758242
19.37566018
19.3754955
19.37533034
19.37516481
19.37499903
19.37483306
19.37477197
19.37481611
19.37486058
19.37490557
19.37495132
19.37499804
19.37504595
19.37509526
19.37514621
19.37519901
19.3752539
19.3753111
19.37537084
19.37543336
19.37549889
19.37556765
19.37563989
19.37571584
19.37579571
19.37587974
19.37596813
19.3760611
19.37615883
19.37626151
19.37636929
19.37648232
19.37660071
19.37672454
19.37685385
19.37698866
19.37712892
19.37727456
19.37742541
19.37758127
19.37774187
19.37790685
19.37807579
19.37824818
19.37842342
19.37860084
19.37877965
19.37895899
19.37913794
19.37931544
19.3794904
19.37966165
19.37982796
19.37998805
19.38014061
19.38028433
19.38041789
19.38054001
19.38064943
19.38074499
19.38082558
19.38089022
19.38093805
19.38096834
19.38098055
19.3809742
19.38094911
19.38090519
19.38084257
19.3807615
19.38066244
19.38054594
19.38041272
19.38026361
19.38009952
19.37992144
19.37973042
19.37952754
19.3793139
19.37909059
19.37885866
19.37861914
19.37837303
19.37812122
19.37786457
19.37760385
19.37733974
19.37707287
19.37680377
19.37653289
19.37626062
19.37598728
19.37571314
19.3754384
19.37516325
19.37488782
19.37478056
19.37484197
19.37490383
19.37496642
19.37503007
19.37509506
19.37516171
19.37523032
19.37530119
19.37537465
19.37545101
19.37553059
19.37561371
19.37570069
19.37579185
19.37588752
19.37598803
19.37609369
19.37620483
19.37632174
19.37644473
19.37657408
19.37671007
19.37685295
19.37700294
19.37716023
19.37732498
19.37749731
19.37767728
19.3778649
19.37806013
19.37826284
19.37847282
19.37868979
19.37891336
19.37914305
19.37937827
19.3796183
19.37986232
19.38010938
19.3803584
19.38060819
19.38085743
19.38110469
19.38134843
19.38158701
19.38181873
19.38204179
19.38225439
19.38245469
19.38264084
19.38281105
19.38296359
19.3830968
19.38320917
19.38329931
19.38336603
19.3834083
19.38342536
19.38341658
19.38338165
19.38332049
19.38323326
19.38312033
19.38298231
19.38282001
19.38263441
19.38242667
19.38219806
19.38194998
19.38168389
19.38140129
19.3811037
19.38079266
19.38046965
19.38013609
19.37979335
19.37944272
19.37908536
19.37872235
19.37835465
19.37798312
19.3776085
19.37723142
19.37685243
19.37647197
19.3760904
19.37570802
19.37532508
19.37494178
19.37478896
19.37486726
19.37494613
19.37502594
19.37510709
19.37518996
19.37527494
19.37536242
19.37545279
19.37554646
19.37564383
19.3757453
19.37585128
19.37596219
19.37607844
19.37620044
19.37632861
19.37646335
19.37660507
19.37675417
19.37691102
19.37707599
19.37724943
19.37743166
19.37762297
19.3778236
19.37803375
19.37825358
19.37848317
19.37872253
19.37897161
19.37923025
19.37949818
19.37977505
19.38006037
19.38035352
19.38065373
19.38096012
19.38127163
19.38158704
19.38190499
19.38222396
19.38254224
19.38285803
19.38316936
19.38347412
19.38377015
19.38405515
19.38432681
19.38458277
19.38482068
19.38503824
19.38523324
19.38540355
19.38554723
19.38566252
19.38574787
19.38580198
19.38582388
19.38581274
19.38576818
19.3856901
19.3855787
19.38543446
19.38525816
19.38505083
19.38481375
19.38454838
19.38425637
19.3839395
19.38359963
19.38323871
19.38285868
19.38246149
19.38204905
19.38162317
19.38118561
19.380738
19.38028183
19.3798185
19.37934921
19.37887506
19.378397
19.37791583
19.37743224
19.3769468
19.37645997
19.37597213
19.3754836
19.37499464
19.37479713
19.37489184
19.37498723
19.37508377
19.37518192
19.37528216
19.37538495
19.37549076
19.37560008
19.37571338
19.37583116
19.3759539
19.3760821
19.37621627
19.37635689
19.37650448
19.37665953
19.37682254
19.376994
19.37717438
19.37736415
19.37756376
19.37777362
19.37799412
19.37822561
19.3784684
19.37872273
19.37898877
19.37926665
19.37955638
19.37985789
19.38017098
19.38049536
19.38083058
19.38117606
19.38153105
19.38189463
19.38226573
19.38264306
19.38302516
19.38341038
19.38379686
19.38418258
19.3845653
19.38494266
19.38531212
19.38567102
19.3860166
19.38634604
19.38665647
19.38694506
19.387209
19.38744559
19.38765226
19.38782665
19.38796661
19.38807026
19.38813603
19.38816271
19.38814932
19.3880954
19.38800082
19.38786581
19.38769098
19.38747727
19.38722593
19.38693852
19.38661683
19.38626286
19.38587877
19.38546684
19.38502942
19.38456888
19.38408759
19.38358785
19.38307189
19.38254182
19.38199962
19.38144712
19.38088598
19.38031768
19.37974353
19.37916469
19.37858213
19.37799668
19.37740902
19.37681971
19.37622921
19.3756379
19.37504609
19.374805
19.37491553
19.37502686
19.37513954
19.3752541
19.37537108
19.37549105
19.37561455
19.37574214
19.37587438
19.37601185
19.37615512
19.37630476
19.37646136
19.37662551
19.37679779
19.37697878
19.37716907
19.37736923
19.37757981
19.37780136
19.37803441
19.37827943
19.37853689
19.3788072
19.37909071
19.37938771
19.37969842
19.38002297
19.38036139
19.38071358
19.38107935
19.38145833
19.38185001
19.38225371
19.38266856
19.38309352
19.38352729
19.3839684
19.38441515
19.38486559
19.38531757
19.38576871
19.38621641
19.38665789
19.38709018
19.38751018
19.38791465
19.38830027
19.38866371
19.38900161
19.3893107
19.38958781
19.38982992
19.39003425
19.39019828
19.3903198
19.39039698
19.39042839
19.39041289
19.39034991
19.39023933
19.39008142
19.38987688
19.38962683
19.38933275
19.38899646
19.38862006
19.38820592
19.38775656
19.38727467
19.386763
19.38622434
19.38566146
19.38507706
19.38447376
19.38385403
19.38322019
19.38257437
19.3819185
19.38125434
19.38058341
19.37990705
19.3792264
19.37854242
19.3778559
19.37716749
19.37647773
19.37578705
19.37509582
19.37481254
19.37493822
19.3750648
19.37519291
19.37532317
19.37545619
19.3755926
19.37573303
19.37587811
19.37602848
19.3761848
19.37634771
19.37651788
19.37669596
19.37688263
19.37707855
19.37728439
19.37750081
19.37772845
19.37796796
19.37821996
19.37848504
19.37876376
19.37905665
19.37936416
19.37968671
19.38002464
19.38037818
19.3807475
19.38113263
19.38153347
19.38194979
19.3823812
19.3828271
19.38328674
19.38375914
19.38424308
19.38473714
19.38523961
19.38574856
19.3862618
19.38677686
19.38729103
19.38780135
19.38830466
19.38879758
19.38927654
19.38973786
19.39017776
19.39059241
19.39097799
19.39133074
19.39164705
19.39192346
19.3921568
19.39234416
19.39248304
19.39257132
19.39260738
19.3925899
19.39251825
19.39239227
19.39221229
19.39197911
19.39169401
19.39135869
19.39097524
19.39054608
19.3900739
19.38956161
19.38901227
19.38842904
19.38781511
19.38717364
19.38650773
19.38582036
19.38511434
19.38439234
19.38365677
19.38290984
19.38215355
19.38138963
19.38061959
19.37984474
19.37906615
19.37828473
19.37750121
19.3767162
19.37593017
19.37514353
19.37481969
19.37495974
19.3751008
19.37524356
19.37538872
19.37553696
19.37568897
19.37584546
19.37600714
19.37617473
19.37634893
19.37653049
19.37672015
19.37691862
19.37712668
19.37734505
19.37757448
19.3778157
19.37806945
19.37833645
19.37861737
19.37891289
19.37922363
19.37955018
19.37989305
19.38025272
19.38062956
19.38102385
19.38143575
19.38186533
19.38231248
19.38277693
19.38325826
19.38375583
19.38426878
19.38479602
19.38533622
19.38588777
19.3864488
19.38701715
19.38759035
19.38816568
19.3887401
19.38931032
19.38987278
19.39042371
19.39095913
19.39147492
19.39196684
19.39243059
19.39286191
19.39325657
19.39361052
19.39391989
19.39418111
19.39439093
19.39454653
19.39464553
19.39468612
19.39466682
19.39458692
19.39444625
19.39424517
19.39398459
19.39366595
19.39329116
19.39286258
19.39238292
19.3918552
19.3912827
19.39066885
19.3900172
19.38933131
19.38861475
19.38787096
19.38710331
19.38631493
19.38550879
19.38468761
19.38385385
19.38300973
19.38215718
19.3812979
19.38043332
19.37956464
19.37869287
19.37781881
19.37694313
19.37606635
19.37518893
19.37482641
19.37497997
19.37513464
19.37529118
19.37545034
19.37561288
19.37577956
19.37595116
19.37612845
19.37631221
19.37650324
19.37670234
19.37691031
19.37712797
19.37735614
19.37759562
19.37784724
19.37811181
19.37839013
19.37868297
19.37899112
19.37931528
19.37965617
19.38001441
19.3803906
19.38078523
19.38119872
19.3816314
19.38208345
19.38255493
19.38304574
19.3835556
19.38408404
19.38463036
19.38519364
19.38577269
19.38636604
19.38697194
19.38758834
19.38821287
19.38884283
19.38947522
19.39010671
19.39073368
19.39135223
19.39195819
19.3925472
19.39311469
19.39365602
19.39416644
19.39464124
19.39507577
19.39546555
19.39580631
19.39609409
19.39632534
19.39649691
19.39660618
19.39665115
19.39663019
19.39654252
19.39638794
19.39616687
19.39588032
19.39552987
19.39511765
19.39464625
19.39411869
19.39353831
19.39290873
19.39223373
19.39151724
19.39076319
19.38997551
19.38915802
19.38831439
19.38744811
19.38656242
19.38566032
19.38474451
19.38381743
19.3828812
19.38193766
19.3809884
19.38003473
19.37907772
19.37811828
19.3771571
19.37619476
19.37523174
19.37483266
19.37499879
19.37516611
19.37533546
19.37550765
19.37568349
19.37586382
19.37604947
19.37624128
19.37644009
19.37664677
19.37686218
19.3770872
19.37732271
19.37756958
19.37782872
19.37810099
19.37838729
19.37868847
19.37900539
19.37933888
19.37968973
19.38005869
19.38044646
19.38085367
19.38128089
19.38172855
19.38219702
19.3826865
19.38319707
19.38372862
19.38428086
19.38485328
19.38544514
19.38605543
19.38668289
19.38732594
19.38798268
19.38865089
19.389328
19.39001112
19.39069697
19.39138195
19.39206214
19.3927333
19.39339092
19.39403024
19.39464632
19.39523409
19.39578839
19.39630411
19.39677617
19.39719969
19.39757003
19.39788288
19.39813434
19.398321
19.39844001
19.39848918
19.39846672
19.39837181
19.39820422
19.39796441
19.39765349
19.39727319
19.39682583
19.39631425
19.39574173
19.39511193
19.39442879
19.39369644
19.39291915
19.39210121
19.3912469
19.39036036
19.3894456
19.3885064
19.38754628
19.38656849
19.38557597
19.38457135
19.38355693
19.38253471
19.38150637
19.38047334
19.37943679
19.37839766
19.37735671
19.37631454
19.37527167
19.37483841
19.37501607
19.37519503
19.37537614
19.3755603
19.37574836
19.37594123
19.37613978
19.37634492
19.37655757
19.37677863
19.37700903
19.37724972
19.37750162
19.3777657
19.37804289
19.37833415
19.37864042
19.37896263
19.37930169
19.37965848
19.38003387
19.38042866
19.3808436
19.38127937
19.38173657
19.38221569
19.38271712
19.38324108
19.38378766
19.38435675
19.38494806
19.38556103
19.38619489
19.38684858
19.38752072
19.38820966
19.38891335
19.38962944
19.39035518
19.39108745
19.39182277
19.39255728
19.39328676
19.39400668
19.39471218
19.39539816
19.39605933
19.39669021
19.39728528
19.39783901
19.39834597
19.39880088
19.39919875
19.39953494
19.39980524
19.40000599
19.40013411
19.40018724
19.40016347
19.40006189
19.39988227
19.39962511
19.3992916
19.39888363
19.3984037
19.39785486
19.39724067
19.39656507
19.39583229
19.39504681
19.39421322
19.39333613
19.39242015
19.39146973
19.39048919
19.38948257
19.38845367
19.38740597
19.38634262
19.38526642
19.38417985
19.38308502
19.38198376
19.38087757
19.37976768
19.3786551
19.37754063
19.37642491
19.37530847
19.37484361
19.37503172
19.3752212
19.37541296
19.37560795
19.37580708
19.37601129
19.37622153
19.37643875
19.37666391
19.37689799
19.37714197
19.37739684
19.3776636
19.37794325
19.3782368
19.37854526
19.37886962
19.37921088
19.37956999
19.37994791
19.38034554
19.38076374
19.38120331
19.38166498
19.38214938
19.38265704
19.38318837
19.38374362
19.38432289
19.38492608
19.38555286
19.38620268
19.38687472
19.38756785
19.38828064
19.38901132
19.38975775
19.39051743
19.39128746
19.39206453
19.39284494
19.39362462
19.39439908
19.3951635
19.39591273
19.39664136
19.39734373
19.39801404
19.39864641
19.39923495
19.39977386
19.40025753
19.40068065
19.40103825
19.40132586
19.40153956
19.40167608
19.40173289
19.40170797
19.40160033
19.40140976
19.40113678
19.40078266
19.40034941
19.39983972
19.39925686
19.39860461
19.39788718
19.3971091
19.39627513
19.39539016
19.39445913
19.39348691
19.39247828
19.39143779
19.39036978
19.38927825
19.38816692
19.38703912
19.38589782
19.38474564
19.38358482
19.38241729
19.38124462
19.38006813
19.37888884
19.37770762
19.37652511
19.37534187
19.37484823
19.37504563
19.37524446
19.3754457
19.37565032
19.37585929
19.37607359
19.37629422
19.37652217
19.37675847
19.37700413
19.37726018
19.37752766
19.37780763
19.37810114
19.37840924
19.378733
19.37907346
19.37943166
19.37980862
19.38020534
19.38062277
19.38106182
19.38152332
19.38200804
19.38251667
19.38304975
19.38360773
19.38419087
19.38479928
19.38543287
19.3860913
19.38677399
19.3874801
19.38820844
19.38895753
19.3897255
19.39051013
19.39130878
19.39211842
19.39293557
19.39375635
19.39457647
19.39539122
19.39619552
19.39698397
19.39775084
19.39849019
19.3991959
19.39986177
19.40048158
19.40104922
19.40155876
19.40200459
19.40238147
19.40268467
19.40291006
19.40305418
19.40311435
19.40308843
19.40297541
19.40277504
19.40248788
19.40211528
19.40165938
19.40112302
19.40050965
19.39982328
19.39906835
19.39824966
19.39737224
19.39644125
19.39546191
19.39443935
19.39337861
19.39228451
19.39116158
19.39001408
19.38884588
19.38766049
19.38646105
19.3852503
19.38403058
19.38280391
19.38157194
19.38033602
19.37909726
19.3778565
19.37661444
19.37537165
19.37485224
19.37505772
19.37526468
19.37547415
19.37568714
19.37590465
19.37612772
19.37635738
19.37659467
19.37684064
19.37709636
19.37736291
19.37764136
19.37793281
19.37823836
19.37855911
19.37889617
19.37925063
19.37962358
19.38001607
19.38042914
19.38086379
19.38132097
19.38180156
19.38230635
19.38283606
19.38339128
19.38397246
19.3845799
19.3852137
19.38587378
19.38655979
19.38727114
19.38800696
19.38876602
19.38954678
19.39034731
19.39116529
19.39199798
19.39284222
19.3936944
19.39455048
19.39540597
19.39625598
19.3970952
19.39791799
19.39871837
19.39949013
19.40022688
19.40092213
19.40156938
19.40216224
19.40269451
19.40316029
19.40355412
19.40387105
19.40410673
19.40425755
19.4043207
19.40429396
19.40417625
19.40396731
19.40366775
19.40327898
19.40280324
19.40224351
19.40160342
19.40088716
19.40009941
19.39924517
19.39832972
19.39735846
19.39633685
19.39527027
19.39416398
19.39302301
19.39185211
19.3906557
19.38943785
19.3882022
19.38695202
19.38569017
19.38441908
19.38314084
19.38185717
19.38056946
19.37927885
19.37798622
19.37669228
19.37539759
19.37485563
19.37506791
19.37528173
19.37549813
19.37571817
19.3759429
19.37617336
19.37641063
19.37665579
19.37690992
19.37717413
19.37744952
19.37773722
19.37803835
19.37835406
19.37868549
19.37903377
19.37940004
19.37978541
19.380191
19.38061787
19.38106706
19.38153954
19.38203624
19.38255798
19.3831055
19.38367941
19.38428018
19.38490814
19.38556339
19.38624585
19.38695518
19.38769077
19.38845171
19.38923676
19.39004431
19.39087239
19.39171861
19.39258013
19.39345369
19.39433556
19.39522155
19.39610705
19.39698696
19.39785582
19.39870775
19.39953659
19.40033588
19.40109901
19.40181924
19.40248983
19.40310414
19.40365574
19.40413852
19.40454678
19.4048754
19.40511987
19.40527641
19.40534214
19.40531472
19.40519304
19.40497686
19.40466677
19.40426427
19.40377169
19.40319213
19.40252935
19.40178773
19.40097211
19.4000877
19.39913998
19.39813456
19.39707711
19.39597321
19.3948283
19.39364762
19.39243608
19.39119827
19.38993837
19.38866018
19.38736708
19.38606199
19.38474745
19.3834256
19.38209822
19.38076674
19.37943231
19.37809584
19.37675805
19.37541951
19.37485836
19.37507614
19.37529549
19.3755175
19.37574324
19.37597379
19.37621022
19.37645364
19.37670515
19.37696587
19.37723693
19.37751947
19.37781464
19.3781236
19.37844751
19.37878756
19.3791449
19.37952071
19.37991614
19.38033231
19.38077034
19.38123127
19.38171613
19.38222584
19.38276128
19.3833232
19.38391223
19.38452886
19.38517341
19.38584603
19.3865466
19.3872748
19.38803001
19.38881129
19.38961738
19.39044665
19.39129706
19.39216616
19.39305105
19.39394838
19.39485433
19.39576461
19.39667445
19.39757865
19.39847156
19.39934718
19.40019914
19.40102081
19.40180538
19.40254593
19.4032355
19.40386727
19.40443462
19.40493123
19.40535126
19.40568941
19.40594105
19.40610227
19.4061701
19.40614215
19.40601727
19.4057952
19.40547657
19.40506293
19.40455667
19.40396099
19.40327979
19.40251756
19.4016793
19.40077039
19.39979647
19.39876332
19.39767677
19.39654258
19.39536635
19.39415346
19.39290896
19.39163758
19.39034361
19.38903095
19.38770306
19.38636295
19.38501323
19.38365607
19.3822933
19.38092638
19.37955649
19.37818454
19.37681127
19.37543725
19.37486043
19.37508235
19.37530589
19.37553214
19.37576218
19.37599712
19.37623807
19.37648613
19.37674245
19.37700815
19.37728438
19.37757232
19.37787313
19.378188
19.37851812
19.37886468
19.37922888
19.3796119
19.38001492
19.3804391
19.38088555
19.38135537
19.38184958
19.38236914
19.38291494
19.38348775
19.38408821
19.38471683
19.38537395
19.38605969
19.38677398
19.38751646
19.38828652
19.38908321
19.38990524
19.39075095
19.39161827
19.39250471
19.39340731
19.39432266
19.39524688
19.39617556
19.39710388
19.39802649
19.39893767
19.39983126
19.40070077
19.40153945
19.40234031
19.40309629
19.40380029
19.40444534
19.40502465
19.40553179
19.40596077
19.40630618
19.40656327
19.40672806
19.40679751
19.40676917
19.40664186
19.40641533
19.40609023
19.40566812
19.40515148
19.40454357
19.40384837
19.4030705
19.40221506
19.40128756
19.40029375
19.39923956
19.39813094
19.39697378
19.3957738
19.39453648
19.39326701
19.39197017
19.39065039
19.38931161
19.38795737
19.38659075
19.38521438
19.3838305
19.38244094
19.3810472
19.37965046
19.37825167
19.37685154
19.37545068
19.37486181
19.37508652
19.37531286
19.37554194
19.37577487
19.37601276
19.37625673
19.37650791
19.37676744
19.37703648
19.37731618
19.37760774
19.37791234
19.37823117
19.37856545
19.37891638
19.37928517
19.37967302
19.38008113
19.38051067
19.38096278
19.38143855
19.38193903
19.3824652
19.38301795
19.38359805
19.38420619
19.38484285
19.38550839
19.38620295
19.38692643
19.3876785
19.38845853
19.38926556
19.39009828
19.39095503
19.39183371
19.39273179
19.3936463
19.39457376
19.39551024
19.3964513
19.39739202
19.39832703
19.39925048
19.40015616
19.40103748
19.40188758
19.40269941
19.40346577
19.40417949
19.40483347
19.40542084
19.40593507
19.40637009
19.40672038
19.40698115
19.40714835
19.40721889
19.40719029
19.40706136
19.40683183
19.40650237
19.40607458
19.40555095
19.40493481
19.40423021
19.40344182
19.40257483
19.40163482
19.40062765
19.39955931
19.39843586
19.39726325
19.39604731
19.39479359
19.39350733
19.39219341
19.39085628
19.38949997
19.38812804
19.38674362
19.38534936
19.38394754
19.38254
19.38112826
19.37971351
19.3782967
19.37687856
19.37545968
19.37486251
19.37508861
19.37531636
19.37554686
19.37578124
19.3760206
19.37626609
19.37651883
19.37677998
19.37705069
19.37733213
19.37762551
19.377932
19.37825282
19.37858918
19.3789423
19.3793134
19.37970368
19.38011434
19.38054657
19.38100151
19.38148027
19.3819839
19.38251339
19.38306962
19.38365339
19.38426537
19.38490607
19.38557584
19.38627482
19.38700292
19.38775981
19.38854483
19.38935705
19.39019515
19.39105745
19.39194183
19.39284576
19.39376623
19.39469978
19.39564242
19.3965897
19.39753666
19.39847789
19.39940751
19.40031926
19.40120652
19.40206237
19.40287971
19.4036513
19.4043699
19.40502838
19.4056198
19.4061376
19.40657564
19.4069284
19.40719102
19.40735943
19.40743052
19.40740179
19.40727205
19.40704102
19.40670937
19.40627871
19.40575158
19.4051313
19.40442197
19.40362829
19.4027555
19.4018092
19.40079531
19.39971987
19.39858896
19.3974086
19.39618464
19.39492267
19.39362799
19.39230548
19.39095964
19.38959453
19.38821372
19.38682035
19.38541712
19.38400629
19.38258972
19.38116895
19.37974516
19.37831931
19.37689212
19.3754642
19.37486251
19.37508861
19.37531636
19.37554686
19.37578124
19.3760206
19.37626609
19.37651883
19.37677998
19.37705069
19.37733213
19.37762551
19.377932
19.37825282
19.37858918
19.3789423
19.3793134
19.37970368
19.38011434
19.38054657
19.38100151
19.38148027
19.3819839
19.38251339
19.38306962
19.38365339
19.38426537
19.38490607
19.38557584
19.38627482
19.38700292
19.38775981
19.38854483
19.38935705
19.39019515
19.39105745
19.39194183
19.39284576
19.39376623
19.39469978
19.39564242
19.3965897
19.39753666
19.39847789
19.39940751
19.40031926
19.40120652
19.40206237
19.40287971
19.4036513
19.4043699
19.40502838
19.4056198
19.4061376
19.40657564
19.4069284
19.40719102
19.40735943
19.40743052
19.40740179
19.40727205
19.40704102
19.40670937
19.40627872
19.40575158
19.4051313
19.40442197
19.40362829
19.4027555
19.4018092
19.40079531
19.39971987
19.39858896
19.3974086
19.39618464
19.39492267
19.39362799
19.39230548
19.39095964
19.38959453
19.38821372
19.38682035
19.38541712
19.38400629
19.38258972
19.38116895
19.37974516
19.37831931
19.37689212
19.3754642
19.37486181
19.37508652
19.37531286
19.37554194
19.37577487
19.37601276
19.37625673
19.37650791
19.37676744
19.37703648
19.37731618
19.37760774
19.37791234
19.37823117
19.37856545
19.37891638
19.37928517
19.37967302
19.38008113
19.38051067
19.38096278
19.38143855
19.38193903
19.3824652
19.38301795
19.38359805
19.38420619
19.38484285
19.38550839
19.38620295
19.38692643
19.38767851
19.38845853
19.38926556
19.39009829
19.39095503
19.39183371
19.3927318
19.3936463
19.39457376
19.39551024
19.3964513
19.39739202
19.39832703
19.39925048
19.40015616
19.40103748
19.40188759
19.40269941
19.40346578
19.4041795
19.40483348
19.40542085
19.40593508
19.40637009
19.40672039
19.40698115
19.40714835
19.40721889
19.40719029
19.40706136
19.40683184
19.40650237
19.40607458
19.40555095
19.40493482
19.40423021
19.40344182
19.40257483
19.40163482
19.40062765
19.39955931
19.39843586
19.39726325
19.39604731
19.39479359
19.39350733
19.39219341
19.39085628
19.38949997
19.38812804
19.38674362
19.38534936
19.38394754
19.38254
19.38112826
19.37971351
19.3782967
19.37687856
19.37545968
19.37486043
19.37508235
19.37530589
19.37553214
19.37576218
19.37599712
19.37623807
19.37648613
19.37674245
19.37700815
19.37728438
19.37757232
19.37787313
19.378188
19.37851812
19.37886468
19.37922888
19.3796119
19.38001492
19.3804391
19.38088555
19.38135537
19.38184958
19.38236914
19.38291494
19.38348775
19.38408821
19.38471683
19.38537395
19.38605969
19.38677398
19.38751646
19.38828652
19.38908321
19.38990524
19.39075095
19.39161827
19.39250471
19.39340731
19.39432267
19.39524688
19.39617557
19.39710388
19.3980265
19.39893768
19.39983126
19.40070078
19.40153945
19.40234031
19.40309629
19.4038003
19.40444534
19.40502466
19.4055318
19.40596078
19.40630619
19.40656328
19.40672807
19.40679752
19.40676917
19.40664187
19.40641534
19.40609023
19.40566813
19.40515148
19.40454357
19.40384837
19.4030705
19.40221506
19.40128756
19.40029375
19.39923956
19.39813094
19.39697378
19.3957738
19.39453648
19.39326701
19.39197017
19.39065039
19.38931161
19.38795737
19.38659075
19.38521438
19.3838305
19.38244094
19.3810472
19.37965046
19.37825167
19.37685154
19.37545068
19.37485836
19.37507614
19.37529549
19.3755175
19.37574324
19.37597379
19.37621022
19.37645364
19.37670515
19.37696587
19.37723693
19.37751947
19.37781464
19.3781236
19.37844751
19.37878756
19.3791449
19.37952071
19.37991614
19.38033231
19.38077034
19.38123127
19.38171613
19.38222584
19.38276128
19.3833232
19.38391223
19.38452886
19.38517341
19.38584603
19.3865466
19.3872748
19.38803001
19.38881129
19.38961739
19.39044665
19.39129706
19.39216616
19.39305105
19.39394838
19.39485434
19.39576461
19.39667446
19.39757865
19.39847157
19.39934718
19.40019914
19.40102082
19.40180539
19.40254593
19.40323551
19.40386728
19.40443463
19.40493124
19.40535127
19.40568942
19.40594105
19.40610228
19.40617011
19.40614216
19.40601728
19.40579521
19.40547658
19.40506294
19.40455668
19.403961
19.40327979
19.40251756
19.4016793
19.4007704
19.39979647
19.39876332
19.39767677
19.39654258
19.39536635
19.39415346
19.39290896
19.39163758
19.39034361
19.38903095
19.38770306
19.38636295
19.38501323
19.38365607
19.3822933
19.38092638
19.37955649
19.37818454
19.37681127
19.37543725
19.37485563
19.37506791
19.37528173
19.37549813
19.37571817
19.3759429
19.37617336
19.37641063
19.37665579
19.37690992
19.37717413
19.37744952
19.37773722
19.37803835
19.37835406
19.37868549
19.37903377
19.37940004
19.37978541
19.380191
19.38061787
19.38106706
19.38153954
19.38203624
19.38255798
19.3831055
19.38367941
19.38428019
19.38490814
19.3855634
19.38624586
19.38695518
19.38769077
19.38845171
19.38923676
19.39004432
19.3908724
19.39171861
19.39258013
19.39345369
19.39433556
19.39522156
19.39610706
19.39698697
19.39785582
19.39870776
19.3995366
19.40033589
19.40109902
19.40181925
19.40248984
19.40310415
19.40365575
19.40413853
19.4045468
19.40487541
19.40511988
19.40527642
19.40534215
19.40531473
19.40519305
19.40497686
19.40466678
19.40426428
19.4037717
19.40319213
19.40252936
19.40178774
19.40097211
19.4000877
19.39913998
19.39813457
19.39707711
19.39597321
19.39482831
19.39364762
19.39243608
19.39119827
19.38993837
19.38866019
19.38736708
19.38606199
19.38474745
19.3834256
19.38209822
19.38076674
19.37943231
19.37809584
19.37675805
19.37541951
19.37485224
19.37505772
19.37526468
19.37547415
19.37568714
19.37590465
19.37612772
19.37635738
19.37659467
19.37684064
19.37709636
19.37736291
19.37764136
19.37793281
19.37823836
19.37855911
19.37889617
19.37925063
19.37962358
19.38001607
19.38042914
19.38086379
19.38132097
19.38180156
19.38230635
19.38283607
19.38339128
19.38397246
19.3845799
19.3852137
19.38587378
19.38655979
19.38727115
19.38800696
19.38876602
19.38954678
19.39034731
19.39116529
19.39199798
19.39284222
19.39369441
19.39455049
19.39540598
19.39625599
19.39709521
19.397918
19.39871838
19.39949014
19.40022689
19.40092214
19.4015694
19.40216225
19.40269452
19.4031603
19.40355414
19.40387106
19.40410675
19.40425756
19.40432072
19.40429397
19.40417626
19.40396732
19.40366776
19.40327899
19.40280325
19.40224352
19.40160342
19.40088717
19.40009941
19.39924517
19.39832972
19.39735846
19.39633685
19.39527027
19.39416398
19.39302301
19.39185211
19.3906557
19.38943785
19.3882022
19.38695203
19.38569017
19.38441908
19.38314084
19.38185717
19.38056946
19.37927885
19.37798622
19.37669228
19.37539759
19.37484823
19.37504563
19.37524446
19.3754457
19.37565032
19.37585929
19.37607359
19.37629422
19.37652217
19.37675847
19.37700413
19.37726018
19.37752766
19.37780763
19.37810114
19.37840924
19.378733
19.37907346
19.37943166
19.37980862
19.38020534
19.38062277
19.38106182
19.38152332
19.38200804
19.38251667
19.38304975
19.38360773
19.38419087
19.38479929
19.38543287
19.3860913
19.386774
19.3874801
19.38820844
19.38895753
19.38972551
19.39051014
19.39130879
19.39211842
19.39293557
19.39375636
19.39457647
19.39539122
19.39619553
19.39698398
19.39775085
19.3984902
19.39919592
19.39986178
19.40048159
19.40104923
19.40155878
19.4020046
19.40238148
19.40268469
19.40291008
19.40305419
19.40311436
19.40308845
19.40297542
19.40277505
19.40248789
19.40211529
19.40165939
19.40112303
19.40050965
19.39982328
19.39906836
19.39824967
19.39737225
19.39644126
19.39546191
19.39443935
19.39337862
19.39228451
19.39116158
19.39001408
19.38884588
19.38766049
19.38646105
19.3852503
19.38403058
19.38280391
19.38157194
19.38033603
19.37909726
19.3778565
19.37661444
19.37537165
19.37484361
19.37503172
19.3752212
19.37541296
19.37560795
19.37580708
19.37601129
19.37622153
19.37643875
19.37666391
19.37689799
19.37714197
19.37739684
19.3776636
19.37794325
19.3782368
19.37854526