/*--------------------------------*- C++ -*----------------------------------*\
| =========                 |                                                 |
| \\      /  F ield         | OpenFOAM: The Open Source CFD Toolbox           |
|  \\    /   O peration     | Version:  2312                                  |
|   \\  /    A nd           | Website:  www.openfoam.com                      |
|    \\/     M anipulation  |                                                 |
\*---------------------------------------------------------------------------*/
FoamFile
{
    version     2.0;
    format      ascii;
    arch        "LSB;label=32;scalar=64";
    class       surfaceVectorField;
    location    "0.2/beam";
    object      Gamma;
}
// * * * * * * * * * * * * * * * * * * * * * * * * * * * * * * * * * * * * * //

dimensions      [0 0 0 0 0 0 0];

oriented        oriented;

internalField   nonuniform List<vector> 
59
(
(0.002321995528 1.029476897e-16 5.956714276e-09)
(0.002321996592 1.029954618e-16 5.81984536e-09)
(0.002321998364 1.030971035e-16 5.59631233e-09)
(0.002322000845 1.032834178e-16 5.292808039e-09)
(0.002322004033 1.035923054e-16 4.918601047e-09)
(0.002322007927 1.040642756e-16 4.485916101e-09)
(0.002322012527 1.047392597e-16 4.009820476e-09)
(0.002322017829 1.056483624e-16 3.507362869e-09)
(0.002322023833 1.068105589e-16 2.998505701e-09)
(0.002322030536 1.082268335e-16 2.50552801e-09)
(0.002322037935 1.098757332e-16 2.052148485e-09)
(0.002322046028 1.117072349e-16 1.664009305e-09)
(0.002322054811 1.136448818e-16 1.366624307e-09)
(0.002322064281 1.155849012e-16 1.18631773e-09)
(0.002322074434 1.173961492e-16 1.147472624e-09)
(0.002322085266 1.18918011e-16 1.272807852e-09)
(0.002322096773 1.199839286e-16 1.58103988e-09)
(0.00232210895 1.20415475e-16 2.086174785e-09)
(0.002322121793 1.20020707e-16 2.79558189e-09)
(0.002322135297 1.186257795e-16 3.709488676e-09)
(0.002322149456 1.160703981e-16 4.819258091e-09)
(0.002322164264 1.122218345e-16 6.106253331e-09)
(0.002322179714 1.069916444e-16 7.542719974e-09)
(0.002322195802 1.00319895e-16 9.091098738e-09)
(0.002322212514 9.22106382e-17 1.070386097e-08)
(0.002322229847 8.270995206e-17 1.232757427e-08)
(0.002322247783 7.192455817e-17 1.390128485e-08)
(0.002322266316 6.000475987e-17 1.536307168e-08)
(0.002322285423 4.716460316e-17 1.664927278e-08)
(0.002322305096 3.356859854e-17 1.770130868e-08)
(0.002322325305 1.952525734e-17 1.846609072e-08)
(0.002322346034 5.33951766e-18 1.890145566e-08)
(0.002322367247 -8.76988508e-18 1.897715365e-08)
(0.002322388921 -2.254974742e-17 1.867752723e-08)
(0.00232241101 -3.576416888e-17 1.800233908e-08)
(0.002322433482 -4.823361172e-17 1.696572037e-08)
(0.002322456281 -5.981343056e-17 1.559643625e-08)
(0.002322479365 -7.042947565e-17 1.393351528e-08)
(0.002322502668 -8.00559165e-17 1.202572351e-08)
(0.002322526138 -8.874154605e-17 9.924922379e-09)
(0.002322549699 -9.658569441e-17 7.686325122e-09)
(0.002322573292 -1.037528382e-16 5.36137928e-09)
(0.002322596832 -1.104426736e-16 2.999299583e-09)
(0.002322620256 -1.168900508e-16 6.401059548e-10)
(0.002322643474 -1.233221231e-16 -1.679779104e-09)
(0.002322666417 -1.299353588e-16 -3.934613978e-09)
(0.002322688996 -1.368276012e-16 -6.101153087e-09)
(0.00232271114 -1.439441165e-16 -8.165109244e-09)
(0.002322732762 -1.509695836e-16 -1.011217895e-08)
(0.002322753794 -1.572332703e-16 -1.19335794e-08)
(0.002322774153 -1.615977692e-16 -1.362027714e-08)
(0.002322793778 -1.62361706e-16 -1.516768618e-08)
(0.002322812596 -1.572050139e-16 -1.657839909e-08)
(0.002322830553 -1.433509217e-16 -1.788498139e-08)
(0.002322847587 -1.182158217e-16 -1.921198394e-08)
(0.00232286366 -8.137315607e-17 -2.09926215e-08)
(0.002322878723 -4.05630017e-17 -2.466735504e-08)
(0.002322892753 -2.909432511e-17 -3.499350894e-08)
(0.002322905718 -1.551908078e-16 -6.760701399e-08)
)
;

boundaryField
{
    left
    {
        type            calculated;
        value           uniform (-0.002321995173 -4.527515372e-14 -6.002811218e-09);
    }
    right
    {
        type            calculated;
        value           uniform (0.002322917606 -4.59267498e-14 -1.739674767e-07);
    }
    beam
    {
        type            empty;
        value           nonuniform List<vector> 0();
    }
}


// ************************************************************************* //
