/*--------------------------------*- C++ -*----------------------------------*\
| =========                 |                                                 |
| \\      /  F ield         | OpenFOAM: The Open Source CFD Toolbox           |
|  \\    /   O peration     | Version:  2312                                  |
|   \\  /    A nd           | Website:  www.openfoam.com                      |
|    \\/     M anipulation  |                                                 |
\*---------------------------------------------------------------------------*/
FoamFile
{
    version     2.0;
    format      ascii;
    arch        "LSB;label=32;scalar=64";
    class       surfaceVectorField;
    location    "0.2/beam";
    object      K;
}
// * * * * * * * * * * * * * * * * * * * * * * * * * * * * * * * * * * * * * //

dimensions      [0 -1 0 0 0 0 0];

oriented        oriented;

internalField   nonuniform List<vector> 
59
(
(1.137992565e-17 6.63436035e-05 -1.142073935e-12)
(2.275679706e-17 0.0001316724622 -2.284483951e-12)
(3.412842818e-17 0.0001950019718 -3.427722038e-12)
(4.549418287e-17 0.0002554077066 -4.572556992e-12)
(5.685550881e-17 0.000312053785 -5.720137e-12)
(6.821735891e-17 0.0003642235549 -6.872048249e-12)
(7.958876538e-17 0.0004113517547 -8.030319959e-12)
(9.098144245e-17 0.0004530512815 -9.197380563e-12)
(1.024127173e-16 0.0004891403488 -1.037593253e-11)
(1.139040177e-16 0.0005196714956 -1.156878608e-11)
(1.254794487e-16 0.0005449524291 -1.27786429e-11)
(1.371676886e-16 0.0005655646845 -1.400780694e-11)
(1.489951872e-16 0.0005823735882 -1.525788274e-11)
(1.609908052e-16 0.0005965320445 -1.652947101e-11)
(1.73176174e-16 0.0006094742653 -1.782187079e-11)
(1.855699996e-16 0.0006228957756 -1.913276366e-11)
(1.981758159e-16 0.0006387219801 -2.045801733e-11)
(2.109843725e-16 0.0006590598327 -2.179158204e-11)
(2.239680109e-16 0.0006861348931 -2.312535306e-11)
(2.370784047e-16 0.0007222148911 -2.44492007e-11)
(2.502410325e-16 0.0007695209222 -2.575113945e-11)
(2.633493231e-16 0.0008301209001 -2.701752226e-11)
(2.762703132e-16 0.0009058291955 -2.823354465e-11)
(2.888442563e-16 0.0009980979369 -2.938358088e-11)
(3.008718715e-16 0.001107903263 -3.04516224e-11)
(3.121431127e-16 0.001235663334 -3.142197728e-11)
(3.224140845e-16 0.001381161483 -3.227979592e-11)
(3.314424718e-16 0.001543499656 -3.301165932e-11)
(3.389700715e-16 0.001721082766 -3.360617013e-11)
(3.447948406e-16 0.001911637906 -3.405402914e-11)
(3.48670982e-16 0.002112272257 -3.434856149e-11)
(3.503870477e-16 0.002319564972 -3.448649524e-11)
(3.498425e-16 0.002529693025 -3.446746319e-11)
(3.469614156e-16 0.002738579144 -3.429371798e-11)
(3.417307016e-16 0.002942057435 -3.397022526e-11)
(3.341984021e-16 0.003136039529 -3.350425473e-11)
(3.244795196e-16 0.003316674634 -3.29048754e-11)
(3.127388333e-16 0.003480488485 -3.218236924e-11)
(2.9919383e-16 0.003624493533 -3.134757434e-11)
(2.840850252e-16 0.003746260845 -3.041119939e-11)
(2.676861296e-16 0.003843955255 -2.938313349e-11)
(2.502675405e-16 0.003916333558 -2.827180041e-11)
(2.321088044e-16 0.003962710818 -2.708360529e-11)
(2.134531951e-16 0.003982897256 -2.582253978e-11)
(1.945435917e-16 0.003977127078 -2.449003478e-11)
(1.755628773e-16 0.003945979335 -2.308516744e-11)
(1.566799135e-16 0.003890304828 -2.160538393e-11)
(1.379905011e-16 0.00381116244 -2.004788634e-11)
(1.195640623e-16 0.003709769769 -1.841193043e-11)
(1.013933748e-16 0.003587472256 -1.670223595e-11)
(8.346155892e-17 0.003445714421 -1.493355375e-11)
(6.572418604e-17 0.003286016095 -1.313637685e-11)
(4.815933729e-17 0.003109908688 -1.136350963e-11)
(3.082248513e-17 0.002918728925 -9.696032837e-12)
(1.400705008e-17 0.002712944616 -8.244788023e-12)
(-1.550610214e-18 0.002489936499 -7.137377007e-12)
(-1.411800886e-17 0.002236716374 -6.461033429e-12)
(-2.019249668e-17 0.001905994984 -6.075870165e-12)
(-1.535656266e-17 0.001337620104 -5.058621436e-12)
)
;

boundaryField
{
    left
    {
        type            calculated;
        value           uniform (5.359802325e-31 -3.940308762e-34 1.600194652e-32);
    }
    right
    {
        type            calculated;
        value           uniform (2.558459028e-32 -1.099308183e-31 4.216718818e-33);
    }
    beam
    {
        type            empty;
        value           nonuniform List<vector> 0();
    }
}


// ************************************************************************* //
