/*--------------------------------*- C++ -*----------------------------------*\
| =========                 |                                                 |
| \\      /  F ield         | OpenFOAM: The Open Source CFD Toolbox           |
|  \\    /   O peration     | Version:  2312                                  |
|   \\  /    A nd           | Website:  www.openfoam.com                      |
|    \\/     M anipulation  |                                                 |
\*---------------------------------------------------------------------------*/
FoamFile
{
    version     2.0;
    format      ascii;
    arch        "LSB;label=32;scalar=64";
    class       surfaceVectorField;
    location    "0.2/beam";
    object      M;
}
// * * * * * * * * * * * * * * * * * * * * * * * * * * * * * * * * * * * * * //

dimensions      [1 2 -2 0 0 0 0];

oriented        oriented;

internalField   nonuniform List<vector> 
59
(
(-4.904243325e-17 4.001753282e-08 -6.871804051e-16)
(-9.804888935e-17 7.942298579e-08 -1.374565801e-15)
(-1.469912708e-16 1.176224594e-07 -2.062454921e-15)
(-1.958558205e-16 1.540583529e-07 -2.751312912e-15)
(-2.446487471e-16 1.882264744e-07 -3.441832994e-15)
(-2.934001675e-16 2.196945492e-07 -4.134971639e-15)
(-3.421659256e-16 2.481216195e-07 -4.831951517e-15)
(-3.910271302e-16 2.732741903e-07 -5.534235049e-15)
(-4.400863691e-16 2.950426104e-07 -6.243449001e-15)
(-4.894622688e-16 3.134585707e-07 -6.961284344e-15)
(-5.39281547e-16 3.287076759e-07 -7.68936604e-15)
(-5.896679116e-16 3.411406998e-07 -8.429078968e-15)
(-6.407299242e-16 3.512795952e-07 -9.181386366e-15)
(-6.925483379e-16 3.598197778e-07 -9.946646647e-15)
(-7.451631241e-16 3.676263442e-07 -1.072443422e-14)
(-7.985590475e-16 3.757220113e-07 -1.151334952e-14)
(-8.52655482e-16 3.852681563e-07 -1.231090094e-14)
(-9.072991918e-16 3.975356642e-07 -1.311344268e-14)
(-9.62255161e-16 4.138669617e-07 -1.391609215e-14)
(-1.017203711e-15 4.356299113e-07 -1.471274831e-14)
(-1.071742902e-15 4.64164247e-07 -1.549619369e-14)
(-1.125391497e-15 5.007173053e-07 -1.625821158e-14)
(-1.177605074e-15 5.463834891e-07 -1.698988963e-14)
(-1.227785458e-15 6.020387021e-07 -1.768182244e-14)
(-1.275294614e-15 6.682717375e-07 -1.832437553e-14)
(-1.319480861e-15 7.453348235e-07 -1.890810645e-14)
(-1.359698843e-15 8.330972701e-07 -1.942408117e-14)
(-1.395333606e-15 9.310173836e-07 -1.98642281e-14)
(-1.425826418e-15 1.038133029e-06 -2.022169362e-14)
(-1.450681133e-15 1.153073222e-06 -2.049088794e-14)
(-1.469490348e-15 1.274093054e-06 -2.066780149e-14)
(-1.481972861e-15 1.399129117e-06 -2.075047312e-14)
(-1.48796008e-15 1.525875417e-06 -2.073868993e-14)
(-1.48739122e-15 1.6518726e-06 -2.063381546e-14)
(-1.480323793e-15 1.774607856e-06 -2.043884535e-14)
(-1.46692285e-15 1.891615139e-06 -2.015816098e-14)
(-1.447445221e-15 2.000571706e-06 -1.979722545e-14)
(-1.422218948e-15 2.099381927e-06 -1.93622306e-14)
(-1.391618154e-15 2.186243756e-06 -1.885970163e-14)
(-1.356035042e-15 2.259692094e-06 -1.829608464e-14)
(-1.315850112e-15 2.318619994e-06 -1.767733134e-14)
(-1.271402973e-15 2.362277574e-06 -1.700851073e-14)
(-1.222965902e-15 2.390251688e-06 -1.629347627e-14)
(-1.170723368e-15 2.402427865e-06 -1.553462856e-14)
(-1.114761762e-15 2.398947373e-06 -1.473282695e-14)
(-1.055074216e-15 2.380159491e-06 -1.388751432e-14)
(-9.915876724e-16 2.346577408e-06 -1.299715219e-14)
(-9.242189998e-16 2.298839827e-06 -1.20600553e-14)
(-8.529708842e-16 2.237681188e-06 -1.107577431e-14)
(-7.78076731e-16 2.16391304e-06 -1.004714763e-14)
(-7.001964523e-16 2.078406699e-06 -8.983049351e-15)
(-6.206632353e-16 1.982078905e-06 -7.901825182e-15)
(-5.417684024e-16 1.875853382e-06 -6.835244575e-15)
(-4.670201355e-16 1.760536425e-06 -5.83208931e-15)
(-4.01203331e-16 1.636410211e-06 -4.959046396e-15)
(-3.497903375e-16 1.501894837e-06 -4.292886853e-15)
(-3.163621489e-16 1.349156003e-06 -3.886097877e-15)
(-2.941501079e-16 1.14966949e-06 -3.654536252e-15)
(-2.406956294e-16 8.068337202e-07 -3.042799265e-15)
)
;

boundaryField
{
    left
    {
        type            calculated;
        value           uniform (6.458006094e-34 -2.376738557e-37 -3.337630181e-35);
    }
    right
    {
        type            calculated;
        value           uniform (3.096735939e-35 -6.630873055e-35 3.288351596e-37);
    }
    beam
    {
        type            empty;
        value           nonuniform List<vector> 0();
    }
}


// ************************************************************************* //
