/*--------------------------------*- C++ -*----------------------------------*\
| =========                 |                                                 |
| \\      /  F ield         | OpenFOAM: The Open Source CFD Toolbox           |
|  \\    /   O peration     | Version:  2312                                  |
|   \\  /    A nd           | Website:  www.openfoam.com                      |
|    \\/     M anipulation  |                                                 |
\*---------------------------------------------------------------------------*/
FoamFile
{
    version     2.0;
    format      ascii;
    arch        "LSB;label=32;scalar=64";
    class       pointVectorField;
    location    "0.2/beam";
    object      pointW;
}
// * * * * * * * * * * * * * * * * * * * * * * * * * * * * * * * * * * * * * //

dimensions      [0 1 0 0 0 0 0];

internalField   nonuniform List<vector> 
1952
(
(-0.0002660545071 -3.762041234e-15 8.857929294e-06)
(-0.0002609422697 -3.689756833e-15 8.687724179e-06)
(-0.0002458024379 -3.475735325e-15 8.183663709e-06)
(-0.0002212163409 -3.128140108e-15 7.36510246e-06)
(-0.0001881291372 -2.66019845e-15 6.263508226e-06)
(-0.0001478119023 -2.089908108e-15 4.921199763e-06)
(-0.0001018144036 -1.439820485e-15 3.389774511e-06)
(-5.190463999e-05 -7.337880303e-16 1.728095623e-06)
(3.234605929e-13 0 -1.779189643e-14)
(5.190464063e-05 7.337880303e-16 -1.728095658e-06)
(0.0001018144042 1.439820485e-15 -3.389774543e-06)
(0.0001478119028 2.089908108e-15 -4.921199793e-06)
(0.0001881291376 2.66019845e-15 -6.263508251e-06)
(0.0002212163412 3.128140108e-15 -7.36510248e-06)
(0.0002458024382 3.475735325e-15 -8.183663723e-06)
(0.0002609422699 3.689756833e-15 -8.687724186e-06)
(0.0002660545071 3.762041234e-15 -8.857929294e-06)
(0.0002609422697 3.689756833e-15 -8.687724179e-06)
(0.0002458024379 3.475735325e-15 -8.183663709e-06)
(0.0002212163409 3.128140108e-15 -7.36510246e-06)
(0.0001881291372 2.66019845e-15 -6.263508226e-06)
(0.0001478119023 2.089908108e-15 -4.921199763e-06)
(0.0001018144036 1.439820485e-15 -3.389774511e-06)
(5.190463999e-05 7.337880303e-16 -1.728095623e-06)
(-3.234605677e-13 0 1.779189559e-14)
(-5.190464063e-05 -7.337880303e-16 1.728095658e-06)
(-0.0001018144042 -1.439820485e-15 3.389774543e-06)
(-0.0001478119028 -2.089908108e-15 4.921199793e-06)
(-0.0001881291376 -2.66019845e-15 6.263508251e-06)
(-0.0002212163412 -3.128140108e-15 7.36510248e-06)
(-0.0002458024382 -3.475735325e-15 8.183663723e-06)
(-0.0002609422699 -3.689756833e-15 8.687724186e-06)
(-0.0002615301225 3.590481413e-12 -0.002942902775)
(-0.0002564177725 3.590553744e-12 -0.002943072988)
(-0.0002412776071 3.590767657e-12 -0.002943577071)
(-0.0002166909684 3.591115252e-12 -0.002944395668)
(-0.0001836030357 3.591583194e-12 -0.002945497311)
(-0.0001432849125 3.592153484e-12 -0.002946839679)
(-9.728640046e-05 3.592804006e-12 -0.002948371171)
(-4.737553721e-05 3.593510038e-12 -0.002950032924)
(4.530246671e-06 3.594243826e-12 -0.002951761096)
(5.643603054e-05 3.594977614e-12 -0.002953489267)
(0.0001063468937 3.595683647e-12 -0.00295515102)
(0.0001523454057 3.596334168e-12 -0.002956682512)
(0.0001926635288 3.596904458e-12 -0.00295802488)
(0.0002257514614 3.5973724e-12 -0.002959126523)
(0.0002503381 3.597719995e-12 -0.00295994512)
(0.0002654782653 3.597934125e-12 -0.002960449203)
(0.0002705906152 3.598006443e-12 -0.002960619416)
(0.0002654782651 3.597934125e-12 -0.002960449203)
(0.0002503380998 3.597719995e-12 -0.00295994512)
(0.0002257514611 3.5973724e-12 -0.002959126523)
(0.0001926635284 3.596904458e-12 -0.00295802488)
(0.0001523454052 3.596334168e-12 -0.002956682512)
(0.0001063468932 3.595683647e-12 -0.00295515102)
(5.64360299e-05 3.594977614e-12 -0.002953489267)
(4.530246025e-06 3.594243826e-12 -0.002951761095)
(-4.737553784e-05 3.593510038e-12 -0.002950032924)
(-9.728640105e-05 3.592804006e-12 -0.002948371171)
(-0.000143284913 3.592153484e-12 -0.002946839679)
(-0.0001836030361 3.591583194e-12 -0.002945497311)
(-0.0002166909687 3.591115252e-12 -0.002944395668)
(-0.0002412776073 3.590767657e-12 -0.002943577071)
(-0.0002564177726 3.590553744e-12 -0.002943072988)
(-0.0002570259755 7.181479686e-12 -0.005894792278)
(-0.0002519132892 7.181552011e-12 -0.005894962513)
(-0.0002367721283 7.181766249e-12 -0.005895466662)
(-0.0002121838728 7.182114278e-12 -0.005896285367)
(-0.0001790937644 7.18258222e-12 -0.005897387155)
(-0.00013877299 7.18315251e-12 -0.0058987297)
(-9.27714532e-05 7.183803465e-12 -0.005900261394)
(-4.285730795e-05 7.184508197e-12 -0.005901923365)
(9.051889109e-06 7.185242852e-12 -0.005903651765)
(6.096108616e-05 7.185977507e-12 -0.005905380164)
(0.0001108752314 7.186683974e-12 -0.005907042135)
(0.0001568767681 7.187334929e-12 -0.00590857383)
(0.0001971975424 7.187905219e-12 -0.005909916374)
(0.0002302876507 7.188373161e-12 -0.005911018162)
(0.0002548759061 7.18872119e-12 -0.005911836867)
(0.0002700170669 7.188935211e-12 -0.005912341016)
(0.000275129753 7.189007542e-12 -0.005912511251)
(0.0002700170668 7.188935211e-12 -0.005912341016)
(0.0002548759059 7.18872119e-12 -0.005911836867)
(0.0002302876504 7.188373161e-12 -0.005911018162)
(0.0001971975419 7.187905219e-12 -0.005909916374)
(0.0001568767676 7.187334929e-12 -0.00590857383)
(0.0001108752308 7.186683974e-12 -0.005907042135)
(6.096108552e-05 7.185977507e-12 -0.005905380164)
(9.051888463e-06 7.185242852e-12 -0.005903651765)
(-4.285730859e-05 7.184508197e-12 -0.005901923365)
(-9.27714538e-05 7.183803465e-12 -0.005900261394)
(-0.0001387729905 7.18315251e-12 -0.005898729699)
(-0.0001790937648 7.18258222e-12 -0.005897387155)
(-0.0002121838732 7.182114278e-12 -0.005896285367)
(-0.0002367721286 7.181766249e-12 -0.005895466662)
(-0.0002519132894 7.181552011e-12 -0.005894962513)
(-0.0002525502758 1.07679878e-11 -0.008846938195)
(-0.000247437035 1.076806016e-11 -0.008847108467)
(-0.0002322942316 1.076827451e-11 -0.008847612726)
(-0.0002077033089 1.076862254e-11 -0.008848431609)
(-0.000174609611 1.076909091e-11 -0.008849533636)
(-0.0001342844628 1.076966164e-11 -0.008850876472)
(-8.827793594e-05 1.077031303e-11 -0.0088524085)
(-3.835837621e-05 1.077101949e-11 -0.008854070832)
(1.355645174e-05 1.077175415e-11 -0.008855799607)
(6.547127969e-05 1.07724888e-11 -0.008857528382)
(0.0001153908394 1.077319527e-11 -0.008859190714)
(0.0001613973662 1.077384666e-11 -0.008860722741)
(0.0002017225143 1.077441738e-11 -0.008862065577)
(0.0002348162121 1.077488576e-11 -0.008863167604)
(0.0002594071347 1.077523379e-11 -0.008863986487)
(0.000274549938 1.077544792e-11 -0.008864490746)
(0.0002796631787 1.077552032e-11 -0.008864661018)
(0.0002745499379 1.077544792e-11 -0.008864490746)
(0.0002594071345 1.077523379e-11 -0.008863986487)
(0.0002348162118 1.077488576e-11 -0.008863167604)
(0.0002017225138 1.077441738e-11 -0.008862065577)
(0.0001613973656 1.077384666e-11 -0.008860722741)
(0.0001153908388 1.077319527e-11 -0.008859190714)
(6.547127905e-05 1.07724888e-11 -0.008857528382)
(1.35564511e-05 1.077175415e-11 -0.008855799607)
(-3.835837684e-05 1.077101949e-11 -0.008854070832)
(-8.827793653e-05 1.077031303e-11 -0.0088524085)
(-0.0001342844633 1.076966164e-11 -0.008850876472)
(-0.0001746096115 1.076909091e-11 -0.008849533636)
(-0.0002077033093 1.076862254e-11 -0.008848431609)
(-0.0002322942319 1.076827451e-11 -0.008847612726)
(-0.0002474370351 1.076806016e-11 -0.008847108467)
(-0.0002481108076 1.434775905e-11 -0.01179946427)
(-0.0002429968021 1.434783152e-11 -0.01179963459)
(-0.0002278517342 1.434804619e-11 -0.011800139)
(-0.000203257134 1.434839443e-11 -0.01180095813)
(-0.000170158487 1.434886324e-11 -0.01180206048)
(-0.0001298273082 1.43494344e-11 -0.01180340372)
(-8.381390123e-05 1.435008622e-11 -0.01180493621)
(-3.388687616e-05 1.435079226e-11 -0.01180659904)
(1.803571552e-05 1.435152778e-11 -0.01180832833)
(6.995830718e-05 1.43522633e-11 -0.01181005762)
(0.0001198853322 1.435297107e-11 -0.01181172045)
(0.0001658987391 1.435362289e-11 -0.01181325294)
(0.0002062299178 1.435419405e-11 -0.01181459618)
(0.0002393285647 1.435466286e-11 -0.01181569854)
(0.0002639231648 1.43550111e-11 -0.01181651766)
(0.0002790682326 1.435522556e-11 -0.01181702207)
(0.000284182238 1.435529797e-11 -0.0118171924)
(0.0002790682325 1.435522556e-11 -0.01181702207)
(0.0002639231646 1.43550111e-11 -0.01181651766)
(0.0002393285643 1.435466286e-11 -0.01181569854)
(0.0002062299174 1.435419405e-11 -0.01181459618)
(0.0001658987386 1.435362289e-11 -0.01181325294)
(0.0001198853316 1.435297107e-11 -0.01181172045)
(6.995830655e-05 1.43522633e-11 -0.01181005762)
(1.803571487e-05 1.435152778e-11 -0.01180832833)
(-3.388687679e-05 1.435079226e-11 -0.01180659904)
(-8.381390182e-05 1.435008622e-11 -0.01180493621)
(-0.0001298273088 1.43494344e-11 -0.01180340372)
(-0.0001701584874 1.434886324e-11 -0.01180206048)
(-0.0002032571343 1.434839443e-11 -0.01180095813)
(-0.0002278517344 1.434804619e-11 -0.011800139)
(-0.0002429968023 1.434783152e-11 -0.01179963459)
(-0.0002437148225 1.79185434e-11 -0.01475248855)
(-0.0002385998536 1.791861603e-11 -0.01475265894)
(-0.0002234519326 1.79188307e-11 -0.01475316354)
(-0.0001988526992 1.791917916e-11 -0.01475398297)
(-0.000165747817 1.79196484e-11 -0.01475508575)
(-0.0001254090406 1.792022043e-11 -0.01475642949)
(-7.938696549e-05 1.792087269e-11 -0.01475796256)
(-2.945053507e-05 1.792158089e-11 -0.01475962601)
(2.248183789e-05 1.792231728e-11 -0.01476135596)
(7.441421084e-05 1.792305367e-11 -0.0147630859)
(0.0001243506412 1.7923761e-11 -0.01476474936)
(0.0001703727163 1.792441326e-11 -0.01476628242)
(0.0002107114926 1.792498528e-11 -0.01476762617)
(0.0002438163747 1.792545452e-11 -0.01476872894)
(0.000268415608 1.792580299e-11 -0.01476954838)
(0.0002835635289 1.792601787e-11 -0.01477005298)
(0.0002886784976 1.792609037e-11 -0.01477022337)
(0.0002835635287 1.792601787e-11 -0.01477005298)
(0.0002684156077 1.792580299e-11 -0.01476954838)
(0.0002438163743 1.792545452e-11 -0.01476872894)
(0.0002107114921 1.792498528e-11 -0.01476762617)
(0.0001703727157 1.792441326e-11 -0.01476628242)
(0.0001243506406 1.7923761e-11 -0.01476474936)
(7.441421021e-05 1.792305367e-11 -0.0147630859)
(2.248183725e-05 1.792231728e-11 -0.01476135596)
(-2.94505357e-05 1.792158089e-11 -0.01475962601)
(-7.938696608e-05 1.792087269e-11 -0.01475796256)
(-0.0001254090411 1.792022043e-11 -0.01475642949)
(-0.0001657478175 1.79196484e-11 -0.01475508575)
(-0.0001988526995 1.791917916e-11 -0.01475398297)
(-0.0002234519328 1.79188307e-11 -0.01475316354)
(-0.0002385998537 1.791861603e-11 -0.01475265894)
(-0.0002393689517 2.147808526e-11 -0.01770612179)
(-0.0002342528347 2.14781579e-11 -0.01770629226)
(-0.0002191015135 2.14783729e-11 -0.01770679709)
(-0.0001944967585 2.147872201e-11 -0.01770761689)
(-0.0001613844455 2.147919212e-11 -0.01770872016)
(-0.0001210366145 2.147976458e-11 -0.01771006451)
(-7.500420913e-05 2.14804177e-11 -0.01771159826)
(-2.505656981e-05 2.148112591e-11 -0.01771326247)
(2.688746007e-05 2.148186316e-11 -0.01771499319)
(7.883148993e-05 2.148260042e-11 -0.01771672391)
(0.0001287791292 2.148330949e-11 -0.01771838812)
(0.0001748115345 2.148396261e-11 -0.01771992187)
(0.0002151593654 2.148453507e-11 -0.01772126622)
(0.0002482716783 2.148500518e-11 -0.01772236949)
(0.0002728764333 2.148535429e-11 -0.01772318929)
(0.0002880277543 2.148556929e-11 -0.01772369412)
(0.0002931438712 2.148564178e-11 -0.01772386458)
(0.0002880277542 2.148556929e-11 -0.01772369412)
(0.000272876433 2.148535429e-11 -0.01772318929)
(0.000248271678 2.148500518e-11 -0.01772236949)
(0.000215159365 2.148453507e-11 -0.01772126622)
(0.000174811534 2.148396261e-11 -0.01771992187)
(0.0001287791286 2.148330949e-11 -0.01771838812)
(7.88314893e-05 2.148260042e-11 -0.01771672391)
(2.688745943e-05 2.148186316e-11 -0.01771499319)
(-2.505657044e-05 2.148112591e-11 -0.01771326247)
(-7.500420972e-05 2.14804177e-11 -0.01771159826)
(-0.000121036615 2.147976458e-11 -0.01771006451)
(-0.0001613844459 2.147919212e-11 -0.01770872016)
(-0.0001944967588 2.147872201e-11 -0.01770761689)
(-0.0002191015138 2.14783729e-11 -0.01770679709)
(-0.0002342528348 2.14781579e-11 -0.01770629226)
(-0.0002350791378 2.502412032e-11 -0.02066046607)
(-0.0002299617041 2.5024193e-11 -0.02066063662)
(-0.0002148064835 2.502440833e-11 -0.0206611417)
(-0.000190195396 2.502475831e-11 -0.02066196193)
(-0.0001570745611 2.502522885e-11 -0.02066306577)
(-0.000116716346 2.502580218e-11 -0.02066441081)
(-7.067209349e-05 2.502645617e-11 -0.02066594536)
(-2.07115994e-05 2.50271661e-11 -0.02066761042)
(3.124579905e-05 2.502790423e-11 -0.02066934203)
(8.320319748e-05 2.502864235e-11 -0.02067107365)
(0.0001331636915 2.502935229e-11 -0.02067273871)
(0.000179207944 2.503000628e-11 -0.02067427325)
(0.000219566159 2.503057961e-11 -0.0206756183)
(0.0002526869939 2.503105015e-11 -0.02067672213)
(0.0002772980812 2.50313997e-11 -0.02067754236)
(0.0002924533016 2.503161502e-11 -0.02067804745)
(0.0002975707352 2.503168775e-11 -0.020678218)
(0.0002924533015 2.503161502e-11 -0.02067804745)
(0.0002772980809 2.50313997e-11 -0.02067754236)
(0.0002526869935 2.503105015e-11 -0.02067672213)
(0.0002195661585 2.503057961e-11 -0.0206756183)
(0.0001792079434 2.503000628e-11 -0.02067427325)
(0.0001331636909 2.502935229e-11 -0.02067273871)
(8.320319686e-05 2.502864235e-11 -0.02067107365)
(3.124579841e-05 2.502790423e-11 -0.02066934203)
(-2.071160003e-05 2.50271661e-11 -0.02066761042)
(-7.067209408e-05 2.502645617e-11 -0.02066594536)
(-0.0001167163465 2.502580218e-11 -0.02066441081)
(-0.0001570745615 2.502522885e-11 -0.02066306577)
(-0.0001901953964 2.502475831e-11 -0.02066196193)
(-0.0002148064837 2.502440833e-11 -0.0206611417)
(-0.0002299617042 2.5024193e-11 -0.02066063662)
(-0.0002308505889 2.855437159e-11 -0.02361561363)
(-0.0002257316877 2.85544444e-11 -0.02361578428)
(-0.0002105721211 2.855466016e-11 -0.02361628966)
(-0.0001859539761 2.855501035e-11 -0.02361711036)
(-0.0001528236432 2.855548176e-11 -0.02361821483)
(-0.0001124538547 2.855605596e-11 -0.02361956064)
(-6.639639833e-05 2.855671125e-11 -0.02362109607)
(-1.642157727e-05 2.855742205e-11 -0.02362276208)
(3.555072079e-05 2.855816104e-11 -0.02362449469)
(8.752301883e-05 2.855890004e-11 -0.0236262273)
(0.0001374978398 2.855961171e-11 -0.02362789332)
(0.0001835552962 2.8560267e-11 -0.02362942875)
(0.0002239250846 2.856084119e-11 -0.02363077456)
(0.0002570554174 2.85613126e-11 -0.02363187903)
(0.0002816735623 2.85616628e-11 -0.02363269973)
(0.0002968331288 2.856187834e-11 -0.02363320511)
(0.0003019520299 2.856195112e-11 -0.02363337576)
(0.0002968331287 2.856187834e-11 -0.02363320511)
(0.0002816735621 2.85616628e-11 -0.02363269973)
(0.000257055417 2.85613126e-11 -0.02363187903)
(0.0002239250841 2.856084119e-11 -0.02363077456)
(0.0001835552957 2.8560267e-11 -0.02362942875)
(0.0001374978393 2.855961171e-11 -0.02362789332)
(8.752301821e-05 2.855890004e-11 -0.0236262273)
(3.555072015e-05 2.855816104e-11 -0.02362449469)
(-1.642157789e-05 2.855742205e-11 -0.02362276208)
(-6.639639891e-05 2.855671125e-11 -0.02362109607)
(-0.0001124538553 2.855605596e-11 -0.02361956064)
(-0.0001528236436 2.855548176e-11 -0.02361821483)
(-0.0001859539764 2.855501035e-11 -0.02361711036)
(-0.0002105721214 2.855466016e-11 -0.02361628966)
(-0.0002257316878 2.85544444e-11 -0.02361578428)
(-0.000226687765 3.206654471e-11 -0.02657164621)
(-0.0002215672643 3.20666177e-11 -0.02657181697)
(-0.0002064029606 3.206683356e-11 -0.02657232266)
(-0.0001817771228 3.206718484e-11 -0.02657314387)
(-0.0001486364373 3.206765669e-11 -0.02657424904)
(-0.000108254034 3.206823218e-11 -0.02657559569)
(-6.21821855e-05 3.206888834e-11 -0.02657713208)
(-1.219174823e-05 3.206960045e-11 -0.02657879914)
(3.979679022e-05 3.207034117e-11 -0.02658053283)
(9.178532866e-05 3.20710819e-11 -0.02658226653)
(0.0001417757659 3.207179401e-11 -0.02658393359)
(0.0001878476144 3.207245016e-11 -0.02658546997)
(0.0002282300176 3.207302566e-11 -0.02658681663)
(0.000261370703 3.20734975e-11 -0.02658792179)
(0.0002859965406 3.207384835e-11 -0.02658874301)
(0.0003011608442 3.207406443e-11 -0.0265892487)
(0.0003062813449 3.207413735e-11 -0.02658941946)
(0.0003011608441 3.207406443e-11 -0.0265892487)
(0.0002859965404 3.207384835e-11 -0.02658874301)
(0.0002613707026 3.20734975e-11 -0.02658792179)
(0.0002282300171 3.207302566e-11 -0.02658681663)
(0.0001878476138 3.207245016e-11 -0.02658546997)
(0.0001417757653 3.207179401e-11 -0.02658393359)
(9.178532804e-05 3.20710819e-11 -0.02658226653)
(3.979678959e-05 3.207034117e-11 -0.02658053283)
(-1.219174885e-05 3.206960045e-11 -0.02657879914)
(-6.218218608e-05 3.206888834e-11 -0.02657713208)
(-0.0001082540345 3.206823218e-11 -0.02657559569)
(-0.0001486364378 3.206765669e-11 -0.02657424904)
(-0.0001817771232 3.206718484e-11 -0.02657314387)
(-0.0002064029608 3.206683356e-11 -0.02657232266)
(-0.0002215672644 3.20666177e-11 -0.02657181697)
(-0.000222594393 3.555832269e-11 -0.02952863466)
(-0.0002174721796 3.555839575e-11 -0.02952880553)
(-0.0002023028039 3.555861226e-11 -0.02952931156)
(-0.0001776687294 3.555896333e-11 -0.02953013332)
(-0.0001445169593 3.555943647e-11 -0.02953123923)
(-0.0001041210492 3.556001283e-11 -0.02953258678)
(-5.803379089e-05 3.556067029e-11 -0.0295341242)
(-8.026633185e-06 3.556138457e-11 -0.02953579238)
(4.397929401e-05 3.556212616e-11 -0.02953752723)
(9.598522119e-05 3.556286775e-11 -0.02953926209)
(0.0001459923789 3.556358116e-11 -0.02954093026)
(0.0001920796371 3.556423862e-11 -0.02954246768)
(0.0002324755471 3.556481498e-11 -0.02954381524)
(0.0002656273172 3.556528813e-11 -0.02954492114)
(0.0002902613915 3.556563963e-11 -0.0295457429)
(0.0003054307671 3.556585614e-11 -0.02954624893)
(0.0003105529804 3.556592926e-11 -0.02954641981)
(0.000305430767 3.556585614e-11 -0.02954624893)
(0.0002902613913 3.556563963e-11 -0.0295457429)
(0.0002656273168 3.556528813e-11 -0.02954492114)
(0.0002324755467 3.556481498e-11 -0.02954381524)
(0.0001920796366 3.556423862e-11 -0.02954246768)
(0.0001459923783 3.556358116e-11 -0.02954093026)
(9.598522057e-05 3.556286775e-11 -0.02953926209)
(4.397929338e-05 3.556212616e-11 -0.02953752723)
(-8.0266338e-06 3.556138457e-11 -0.02953579238)
(-5.803379146e-05 3.556067029e-11 -0.0295341242)
(-0.0001041210497 3.556001283e-11 -0.02953258678)
(-0.0001445169597 3.555943647e-11 -0.02953123922)
(-0.0001776687298 3.555896333e-11 -0.02953013332)
(-0.0002023028041 3.555861226e-11 -0.02952931156)
(-0.0002174721797 3.555839575e-11 -0.02952880553)
(-0.000218573516 3.902736046e-11 -0.03248663903)
(-0.0002134494951 3.902743374e-11 -0.03248681002)
(-0.0001982747668 3.902765025e-11 -0.03248731641)
(-0.000173632 3.902800262e-11 -0.03248813876)
(-0.000140468532 3.902847663e-11 -0.03248924544)
(-0.0001000583679 3.902905386e-11 -0.03249059395)
(-5.395484732e-05 3.902971306e-11 -0.03249213245)
(-3.930044187e-06 3.903042733e-11 -0.03249380181)
(4.809423372e-05 3.903117066e-11 -0.03249553789)
(0.0001001185116 3.903191399e-11 -0.03249727397)
(0.0001501433147 3.903262913e-11 -0.03249894333)
(0.0001962468352 3.903328832e-11 -0.03250048183)
(0.0002366569993 3.903386555e-11 -0.03250183034)
(0.0002698204672 3.903433956e-11 -0.03250293703)
(0.0002944632339 3.903469149e-11 -0.03250375937)
(0.0003096379621 3.903490844e-11 -0.03250426576)
(0.0003147619828 3.903498163e-11 -0.03250443675)
(0.000309637962 3.903490844e-11 -0.03250426576)
(0.0002944632336 3.903469149e-11 -0.03250375937)
(0.0002698204668 3.903433956e-11 -0.03250293703)
(0.0002366569988 3.903386555e-11 -0.03250183034)
(0.0001962468347 3.903328832e-11 -0.03250048183)
(0.0001501433141 3.903262913e-11 -0.03249894333)
(0.000100118511 3.903191399e-11 -0.03249727397)
(4.80942331e-05 3.903117066e-11 -0.03249553789)
(-3.930044798e-06 3.903042733e-11 -0.03249380181)
(-5.39548479e-05 3.902971306e-11 -0.03249213245)
(-0.0001000583684 3.902905386e-11 -0.03249059395)
(-0.0001404685324 3.902847663e-11 -0.03248924544)
(-0.0001736320004 3.902800262e-11 -0.03248813876)
(-0.000198274767 3.902765025e-11 -0.03248731641)
(-0.0002134494953 3.902743374e-11 -0.03248681002)
(-0.0002146275819 4.247127976e-11 -0.03544570925)
(-0.0002095016757 4.247135326e-11 -0.03544588036)
(-0.000194321364 4.247157031e-11 -0.03544638713)
(-0.0001696695302 4.247192355e-11 -0.03544721008)
(-0.00013649386 4.247239843e-11 -0.03544831758)
(-9.606882733e-05 4.247297696e-11 -0.03544966708)
(-4.994834343e-05 4.247363702e-11 -0.03545120672)
(9.48658373e-08 4.247435303e-11 -0.0354528773)
(5.213828557e-05 4.247509809e-11 -0.03545461466)
(0.0001041817053 4.247584316e-11 -0.03545635202)
(0.0001542249145 4.247655916e-11 -0.03545802261)
(0.0002003453984 4.247721922e-11 -0.03545956224)
(0.0002407704309 4.247779775e-11 -0.03546091175)
(0.000273946101 4.247827264e-11 -0.03546201925)
(0.0002985979348 4.247862543e-11 -0.0354628422)
(0.0003137782464 4.247884271e-11 -0.03546334896)
(0.0003189041525 4.247891603e-11 -0.03546352008)
(0.0003137782463 4.247884271e-11 -0.03546334896)
(0.0002985979345 4.247862543e-11 -0.0354628422)
(0.0002739461007 4.247827264e-11 -0.03546201925)
(0.0002407704305 4.247779775e-11 -0.03546091175)
(0.0002003453978 4.247721922e-11 -0.03545956224)
(0.000154224914 4.247655916e-11 -0.03545802261)
(0.0001041817047 4.247584316e-11 -0.03545635202)
(5.213828495e-05 4.247509809e-11 -0.03545461466)
(9.486523156e-08 4.247435303e-11 -0.0354528773)
(-4.9948344e-05 4.247363702e-11 -0.03545120672)
(-9.606882784e-05 4.247297696e-11 -0.03544966708)
(-0.0001364938604 4.247239843e-11 -0.03544831758)
(-0.0001696695305 4.247192355e-11 -0.03544721008)
(-0.0001943213643 4.247157031e-11 -0.03544638713)
(-0.0002095016759 4.247135326e-11 -0.03544588036)
(-0.0002107585661 4.588766474e-11 -0.03840588618)
(-0.000205630711 4.588773838e-11 -0.03840605742)
(-0.0001904446278 4.588795598e-11 -0.03840656457)
(-0.0001657834214 4.588830965e-11 -0.03840738815)
(-0.000132595138 4.588878539e-11 -0.03840849649)
(-9.215473587e-05 4.588936522e-11 -0.03840984702)
(-4.601671714e-05 4.589002659e-11 -0.03841138783)
(4.045518376e-06 4.589074346e-11 -0.03841305969)
(5.610872482e-05 4.589149026e-11 -0.03841479837)
(0.0001081719313 4.589223706e-11 -0.03841653706)
(0.0001582341667 4.58929548e-11 -0.03841820891)
(0.0002043721854 4.589361616e-11 -0.03841974972)
(0.0002448125874 4.5894196e-11 -0.03842110025)
(0.0002780008708 4.589467174e-11 -0.0384222086)
(0.0003026620771 4.589502541e-11 -0.03842303217)
(0.0003178481602 4.589524301e-11 -0.03842353932)
(0.0003229760151 4.589531647e-11 -0.03842371057)
(0.0003178481601 4.589524301e-11 -0.03842353932)
(0.0003026620768 4.589502541e-11 -0.03842303217)
(0.0002780008705 4.589467174e-11 -0.0384222086)
(0.000244812587 4.5894196e-11 -0.03842110025)
(0.0002043721849 4.589361616e-11 -0.03841974972)
(0.0001582341662 4.58929548e-11 -0.03841820891)
(0.0001081719307 4.589223706e-11 -0.03841653706)
(5.610872421e-05 4.589149026e-11 -0.03841479837)
(4.045517775e-06 4.589074346e-11 -0.03841305969)
(-4.60167177e-05 4.589002659e-11 -0.03841138783)
(-9.215473638e-05 4.588936522e-11 -0.03840984702)
(-0.0001325951384 4.588878539e-11 -0.03840849649)
(-0.0001657834218 4.588830965e-11 -0.03840738815)
(-0.000190444628 4.588795598e-11 -0.03840656457)
(-0.0002056307112 4.588773838e-11 -0.03840605742)
(-0.0002069681376 4.927405896e-11 -0.04136720337)
(-0.0002018382811 4.927413263e-11 -0.04136737476)
(-0.0001866462706 4.927435088e-11 -0.0413678823)
(-0.0001619754389 4.927470541e-11 -0.04136870652)
(-0.0001287742019 4.927518202e-11 -0.04136981573)
(-8.83180157e-05 4.927576316e-11 -0.04137116732)
(-4.216198908e-05 4.927642582e-11 -0.04137270933)
(7.919785957e-06 4.927714486e-11 -0.04137438249)
(6.000331292e-05 4.927789253e-11 -0.04137612254)
(0.0001120868399 4.92786402e-11 -0.04137786258)
(0.0001621686149 4.927936011e-11 -0.04137953574)
(0.0002083246414 4.928002277e-11 -0.04138107776)
(0.0002487808275 4.92806039e-11 -0.04138242934)
(0.0002819820645 4.928108052e-11 -0.04138353855)
(0.0003066528961 4.928143462e-11 -0.04138436277)
(0.0003218449064 4.928165265e-11 -0.04138487032)
(0.0003269747628 4.928172641e-11 -0.0413850417)
(0.0003218449063 4.928165265e-11 -0.04138487032)
(0.0003066528959 4.928143462e-11 -0.04138436277)
(0.0002819820641 4.928108052e-11 -0.04138353855)
(0.0002487808271 4.92806039e-11 -0.04138242934)
(0.0002083246409 4.928002277e-11 -0.04138107776)
(0.0001621686143 4.927936011e-11 -0.04137953574)
(0.0001120868393 4.92786402e-11 -0.04137786258)
(6.000331231e-05 4.927789253e-11 -0.04137612254)
(7.919785362e-06 4.927714486e-11 -0.04137438249)
(-4.216198964e-05 4.927642582e-11 -0.04137270933)
(-8.831801621e-05 4.927576316e-11 -0.04137116732)
(-0.0001287742023 4.927518202e-11 -0.04136981573)
(-0.0001619754392 4.927470541e-11 -0.04136870652)
(-0.0001866462709 4.927435088e-11 -0.0413678823)
(-0.0002018382812 4.927413263e-11 -0.04136737476)
(-0.000203257857 5.262796432e-11 -0.04432968932)
(-0.0001981259531 5.262803821e-11 -0.04432986083)
(-0.0001829278792 5.262825679e-11 -0.04433036878)
(-0.0001582472009 5.262861154e-11 -0.04433119366)
(-0.0001250327126 5.262908902e-11 -0.04433230376)
(-8.456037957e-05 5.262967145e-11 -0.04433365643)
(-3.838593119e-05 5.263033542e-11 -0.04433519967)
(1.171583246e-05 5.263105663e-11 -0.04433687417)
(6.382014696e-05 5.263180603e-11 -0.04433861561)
(0.0001159244615 5.263255543e-11 -0.04434035704)
(0.0001660262251 5.263327578e-11 -0.04434203154)
(0.0002122006734 5.263393974e-11 -0.04434357479)
(0.0002526730063 5.263452217e-11 -0.04434492745)
(0.0002858874945 5.263499966e-11 -0.04434603755)
(0.0003105681728 5.263535528e-11 -0.04434686243)
(0.0003257662465 5.263557385e-11 -0.04434737038)
(0.0003308981503 5.263564767e-11 -0.0443475419)
(0.0003257662464 5.263557385e-11 -0.04434737038)
(0.0003105681725 5.263535528e-11 -0.04434686243)
(0.0002858874942 5.263499966e-11 -0.04434603755)
(0.0002526730059 5.263452217e-11 -0.04434492745)
(0.0002122006729 5.263393974e-11 -0.04434357479)
(0.0001660262245 5.263327578e-11 -0.04434203154)
(0.0001159244609 5.263255543e-11 -0.04434035704)
(6.382014636e-05 5.263180603e-11 -0.04433861561)
(1.171583187e-05 5.263105663e-11 -0.04433687417)
(-3.838593174e-05 5.263033542e-11 -0.04433519967)
(-8.456038007e-05 5.262967145e-11 -0.04433365643)
(-0.000125032713 5.262908902e-11 -0.04433230376)
(-0.0001582472012 5.262861154e-11 -0.04433119366)
(-0.0001829278794 5.262825679e-11 -0.04433036878)
(-0.0001981259532 5.262803821e-11 -0.04432986083)
(-0.000199629414 5.594684264e-11 -0.0472933702)
(-0.0001944954179 5.594691659e-11 -0.04729354186)
(-0.0001792911481 5.594713581e-11 -0.04729405023)
(-0.0001546004078 5.5947491e-11 -0.04729487578)
(-0.0001213723786 5.594796978e-11 -0.04729598678)
(-8.088354579e-05 5.594855308e-11 -0.04729734055)
(-3.469027294e-05 5.594921878e-11 -0.04729888506)
(1.543191626e-05 5.594994086e-11 -0.04730056093)
(6.755747273e-05 5.5950692e-11 -0.04730230378)
(0.0001196830292 5.595144313e-11 -0.04730404663)
(0.0001698052184 5.595216521e-11 -0.0473057225)
(0.0002159984912 5.595283091e-11 -0.04730726701)
(0.0002564873239 5.595341421e-11 -0.04730862078)
(0.000289715353 5.595389299e-11 -0.04730973178)
(0.0003144060931 5.595424905e-11 -0.04731055734)
(0.0003296103629 5.595446806e-11 -0.0473110657)
(0.0003347443588 5.595454206e-11 -0.04731123736)
(0.0003296103627 5.595446806e-11 -0.0473110657)
(0.0003144060929 5.595424905e-11 -0.04731055734)
(0.0002897153527 5.595389299e-11 -0.04730973178)
(0.0002564873235 5.595341421e-11 -0.04730862078)
(0.0002159984907 5.595283091e-11 -0.04730726701)
(0.0001698052178 5.595216521e-11 -0.0473057225)
(0.0001196830286 5.595144313e-11 -0.04730404663)
(6.755747214e-05 5.5950692e-11 -0.04730230378)
(1.543191568e-05 5.594994086e-11 -0.04730056093)
(-3.469027349e-05 5.594921878e-11 -0.04729888506)
(-8.088354628e-05 5.594855308e-11 -0.04729734055)
(-0.000121372379 5.594796978e-11 -0.04729598678)
(-0.0001546004082 5.5947491e-11 -0.04729487578)
(-0.0001792911483 5.594713581e-11 -0.04729405023)
(-0.000194495418 5.594691659e-11 -0.04729354186)
(-0.0001960848901 5.922812028e-11 -0.05025827326)
(-0.0001909487522 5.922819451e-11 -0.05025844506)
(-0.0001757381394 5.922841384e-11 -0.05025895385)
(-0.0001510370985 5.922877033e-11 -0.0502597801)
(-0.0001177952071 5.922924998e-11 -0.05026089203)
(-7.728948285e-05 5.922983458e-11 -0.05026224693)
(-3.107693882e-05 5.923050158e-11 -0.05026379272)
(1.906616066e-05 5.923122496e-11 -0.05026546999)
(7.121346318e-05 5.923197783e-11 -0.05026721431)
(0.0001233607657 5.92327307e-11 -0.05026895862)
(0.0001735038651 5.923345408e-11 -0.05027063589)
(0.0002197164091 5.923412108e-11 -0.05027218168)
(0.0002602221333 5.923470568e-11 -0.05027353658)
(0.0002934640246 5.923518533e-11 -0.05027464851)
(0.0003181650654 5.923554225e-11 -0.05027547476)
(0.0003333756781 5.92357618e-11 -0.05027598355)
(0.0003385118159 5.923583593e-11 -0.05027615535)
(0.000333375678 5.92357618e-11 -0.05027598355)
(0.0003181650652 5.923554225e-11 -0.05027547476)
(0.0002934640243 5.923518533e-11 -0.05027464851)
(0.0002602221328 5.923470568e-11 -0.05027353658)
(0.0002197164086 5.923412108e-11 -0.05027218168)
(0.0001735038646 5.923345408e-11 -0.05027063589)
(0.0001233607651 5.92327307e-11 -0.05026895862)
(7.12134626e-05 5.923197783e-11 -0.05026721431)
(1.906616009e-05 5.923122496e-11 -0.05026546999)
(-3.107693936e-05 5.923050158e-11 -0.05026379272)
(-7.728948334e-05 5.922983458e-11 -0.05026224693)
(-0.0001177952075 5.922924998e-11 -0.05026089203)
(-0.0001510370989 5.922877033e-11 -0.0502597801)
(-0.0001757381396 5.922841384e-11 -0.05025895385)
(-0.0001909487523 5.922819451e-11 -0.05025844506)
(-0.0001926270479 6.246919614e-11 -0.05322443051)
(-0.0001874887067 6.246927042e-11 -0.05322460246)
(-0.0001722715691 6.246949052e-11 -0.05322511168)
(-0.0001475599323 6.246984787e-11 -0.05322593864)
(-0.0001143037813 6.247032839e-11 -0.05322705152)
(-7.378068151e-05 6.247091429e-11 -0.05322840759)
(-2.75483139e-05 6.247158303e-11 -0.05322995471)
(2.261629522e-05 6.247230771e-11 -0.05323163342)
(7.478596711e-05 6.247306231e-11 -0.05323337923)
(0.000126955639 6.247381692e-11 -0.05323512504)
(0.0001771202481 6.24745416e-11 -0.05323680375)
(0.0002233526156 6.247521033e-11 -0.05323835088)
(0.0002638757153 6.247579624e-11 -0.05323970694)
(0.0002971318663 6.247627676e-11 -0.05324081983)