/*--------------------------------*- C++ -*----------------------------------*\
| =========                 |                                                 |
| \\      /  F ield         | OpenFOAM: The Open Source CFD Toolbox           |
|  \\    /   O peration     | Version:  2312                                  |
|   \\  /    A nd           | Website:  www.openfoam.com                      |
|    \\/     M anipulation  |                                                 |
\*---------------------------------------------------------------------------*/
FoamFile
{
    version     2.0;
    format      ascii;
    arch        "LSB;label=32;scalar=64";
    class       surfaceVectorField;
    location    "0.2/beam";
    object      Q;
}
// * * * * * * * * * * * * * * * * * * * * * * * * * * * * * * * * * * * * * //

dimensions      [1 1 -2 0 0 0 0];

oriented        oriented;

internalField   nonuniform List<vector> 
59
(
(0.3493722674 2.836230333e-11 -0.02328920614)
(0.349372324 2.833576158e-11 -0.0232907689)
(0.34937242 2.829151864e-11 -0.0232933469)
(0.3493725579 2.822956025e-11 -0.02329690104)
(0.3493727411 2.814985842e-11 -0.0233013782)
(0.3493729738 2.805236444e-11 -0.02330671287)
(0.3493732608 2.793700122e-11 -0.02331282919)
(0.3493736074 2.780365599e-11 -0.02331964354)
(0.3493740192 2.765217415e-11 -0.02332706755)
(0.3493745017 2.748235555e-11 -0.0233350115)
(0.3493750603 2.729395387e-11 -0.02334338818)
(0.3493757001 2.708668008e-11 -0.02335211705)
(0.349376425 2.68602106e-11 -0.02336112865)
(0.3493772382 2.661420037e-11 -0.02337036912)
(0.3493781414 2.634830112e-11 -0.02337980483)
(0.3493791344 2.606218436e-11 -0.02338942666)
(0.3493802155 2.575556857e-11 -0.02339925406)
(0.3493813803 2.54282496e-11 -0.02340933839)
(0.3493826226 2.508013298e-11 -0.02341976547)
(0.3493839332 2.471126673e-11 -0.02343065703)
(0.3493853008 2.432187279e-11 -0.02344217082)
(0.3493867114 2.391237548e-11 -0.02345449919)
(0.3493881489 2.348347464e-11 -0.02346786446)
(0.3493895956 2.303591512e-11 -0.02348252191)
(0.3493910313 2.257104518e-11 -0.02349873562)
(0.3493924359 2.209005425e-11 -0.02351679553)
(0.3493937875 2.159480377e-11 -0.02353697852)
(0.349395066 2.108694095e-11 -0.02355957053)
(0.3493962505 2.056876612e-11 -0.02358481885)
(0.349397323 2.004228146e-11 -0.02361296194)
(0.3493982666 1.951008547e-11 -0.02364417311)
(0.3493990681 1.897437742e-11 -0.02367860214)
(0.3493997167 1.843787041e-11 -0.02371631118)
(0.3494002059 1.79027772e-11 -0.02375733167)
(0.3494005321 1.737173371e-11 -0.02380159336)
(0.3494006962 1.684679339e-11 -0.0238489984)
(0.3494007022 1.633035275e-11 -0.02389934397)
(0.3494005573 1.582417945e-11 -0.02395241301)
(0.349400272 1.533033032e-11 -0.02400789043)
(0.3493998585 1.485023406e-11 -0.02406546747)
(0.3493993316 1.438559054e-11 -0.02412475109)
(0.3493987065 1.393752269e-11 -0.02418537745)
(0.3493979999 1.350744418e-11 -0.02424691427)
(0.3493972281 1.309628746e-11 -0.02430897855)
(0.3493964079 1.270532304e-11 -0.02437113288)
(0.349395555 1.233546097e-11 -0.02443300329)
(0.3493946853 1.198799578e-11 -0.02449417175)
(0.349393813 1.166396386e-11 -0.02455429139)
(0.3493929522 1.13647701e-11 -0.02461297867)
(0.3493921155 1.109156088e-11 -0.02466992396)
(0.3493913151 1.084566136e-11 -0.02472478727)
(0.3493905618 1.062789691e-11 -0.02477730254)
(0.3493898658 1.043874638e-11 -0.02482718015)
(0.349389236 1.027753473e-11 -0.02487420322)
(0.3493886805 1.014223027e-11 -0.02491813918)
(0.3493882062 1.002849532e-11 -0.02495882625)
(0.3493878193 9.929234372e-12 -0.02499609545)
(0.3493875241 9.833837614e-12 -0.02502984537)
(0.3493873246 9.728476766e-12 -0.02505997565)
)
;

boundaryField
{
    left
    {
        type            calculated;
        value           uniform (-0.3493722487 -3.518293999e-11 0.02328868254);
    }
    right
    {
        type            calculated;
        value           uniform (0.3493872229 2.787124627e-12 -0.02508644858);
    }
    beam
    {
        type            empty;
        value           nonuniform List<vector> 0();
    }
}


// ************************************************************************* //
