/*--------------------------------*- C++ -*----------------------------------*\
| =========                 |                                                 |
| \\      /  F ield         | OpenFOAM: The Open Source CFD Toolbox           |
|  \\    /   O peration     | Version:  2312                                  |
|   \\  /    A nd           | Website:  www.openfoam.com                      |
|    \\/     M anipulation  |                                                 |
\*---------------------------------------------------------------------------*/
FoamFile
{
    version     2.0;
    format      ascii;
    arch        "LSB;label=32;scalar=64";
    class       volVectorField;
    location    "0.2/beam";
    object      Theta;
}
// * * * * * * * * * * * * * * * * * * * * * * * * * * * * * * * * * * * * * //

dimensions      [0 0 0 0 0 0 0];

internalField   nonuniform List<vector> 
60
(
(-4.417857165e-13 0.06651995283 8.102320935e-11)
(-4.386058073e-13 0.06652518099 8.097365036e-11)
(-4.322510477e-13 0.06653193075 8.08739169e-11)
(-4.227337219e-13 0.06654230475 8.072394358e-11)
(-4.100741138e-13 0.06655486232 8.052361872e-11)
(-3.943026052e-13 0.06657022165 8.027276823e-11)
(-3.75462514e-13 0.06658771501 7.997113766e-11)
(-3.53613536e-13 0.06660740017 7.961837094e-11)
(-3.288352167e-13 0.06662886862 7.921399737e-11)
(-3.012311952e-13 0.06665197259 7.875741765e-11)
(-2.709332387e-13 0.06667640578 7.824790053e-11)
(-2.381047988e-13 0.06670197177 7.768459252e-11)
(-2.029445884e-13 0.0667284423 7.706653493e-11)
(-1.656891816e-13 0.06675566188 7.639269612e-11)
(-1.266146165e-13 0.06678350543 7.566201899e-11)
(-8.603675767e-14 0.06681192372 7.487348148e-11)
(-4.431012953e-14 0.06684093522 7.402617535e-11)
(-1.825923321e-15 0.06687064805 7.311936663e-11)
(4.099327341e-14 0.06690126096 7.215262122e-11)
(8.369825423e-14 0.06693307283 7.112586932e-11)
(1.258208801e-13 0.06696648202 7.003950961e-11)
(1.668825776e-13 0.06700198577 6.889449459e-11)
(2.064015263e-13 0.06704017037 6.769247087e-11)
(2.439114009e-13 0.06708170914 6.643557052e-11)
(2.789596217e-13 0.0671273331 6.512685153e-11)
(3.111245197e-13 0.06717781869 6.377005366e-11)
(3.400257735e-13 0.06723396086 6.236964498e-11)
(3.653303807e-13 0.06729654496 6.093080827e-11)
(3.867632409e-13 0.06736631658 5.945933773e-11)
(4.041103813e-13 0.06744395069 5.796161916e-11)
(4.172302424e-13 0.06753002163 5.644449012e-11)
(4.260381654e-13 0.06762497566 5.491503641e-11)
(4.305309254e-13 0.06772910757 5.338061099e-11)
(4.307667213e-13 0.06784254291 5.184861103e-11)
(4.268686079e-13 0.06796522667 5.032631496e-11)
(4.190147967e-13 0.06809691944 4.882080347e-11)
(4.074346236e-13 0.06823720076 4.733880971e-11)
(3.923962065e-13 0.06838547972 4.5886643e-11)
(3.741999711e-13 0.0685410115 4.447010691e-11)
(3.531646331e-13 0.06870291916 4.309446739e-11)
(3.296186554e-13 0.06887021798 4.176444223e-11)
(3.038840371e-13 0.06904184235 4.048423352e-11)
(2.762634419e-13 0.06921667106 3.925758897e-11)
(2.470176513e-13 0.06939355349 3.808789664e-11)
(2.163425118e-13 0.06957132905 3.697830153e-11)
(1.843329872e-13 0.06974885018 3.59318334e-11)
(1.509450751e-13 0.0699249905 3.495153058e-11)
(1.159497086e-13 0.07009866873 3.404053901e-11)
(7.890267083e-14 0.0702688381 3.320216863e-11)
(3.914808852e-14 0.07043452639 3.243988519e-11)
(-4.077844103e-15 0.07059478645 3.17572434e-11)
(-5.138076211e-14 0.07074879274 3.115779407e-11)
(-1.026576715e-13 0.07089569071 3.064493875e-11)
(-1.562250632e-13 0.07103485447 3.022181579e-11)
(-2.077371413e-13 0.07116544856 2.989090902e-11)
(-2.496526472e-13 0.07128710734 2.965232338e-11)
(-2.735719703e-13 0.07139859867 2.94971557e-11)
(-2.819909834e-13 0.0714993696 2.938592297e-11)
(-3.292046819e-13 0.07158467747 2.918655732e-11)
(-6.700255289e-13 0.07164619148 2.851992994e-11)
)
;

boundaryField
{
    left
    {
        type            momentBeamRotationNR;
        value           uniform (-4.417857165e-13 0.06651995283 8.102320935e-11);
        momentSeries    
{
        file            "$FOAM_CASE/constant/beam/timeVsMoment";
        outOfBounds     clamp;
}
        moment          uniform (0 0 0);
    }
    right
    {
        type            momentBeamRotationNR;
        value           uniform (-6.700255289e-13 0.07164619148 2.851992994e-11);
        momentSeries    
{
        file            "$FOAM_CASE/constant/beam/timeVsMoment";
        outOfBounds     clamp;
}
        moment          uniform (0 0 0);
    }
    beam
    {
        type            empty;
    }
}


// ************************************************************************* //
