/*--------------------------------*- C++ -*----------------------------------*\
| =========                 |                                                 |
| \\      /  F ield         | OpenFOAM: The Open Source CFD Toolbox           |
|  \\    /   O peration     | Version:  2312                                  |
|   \\  /    A nd           | Website:  www.openfoam.com                      |
|    \\/     M anipulation  |                                                 |
\*---------------------------------------------------------------------------*/
FoamFile
{
    version     2.0;
    format      ascii;
    arch        "LSB;label=32;scalar=64";
    class       volVectorField;
    location    "0.2/beam";
    object      W;
}
// * * * * * * * * * * * * * * * * * * * * * * * * * * * * * * * * * * * * * //

dimensions      [0 1 0 0 0 0 0];

internalField   nonuniform List<vector> 
60
(
(2.266202555e-06 1.797902471e-12 -0.001475864289)
(6.794290141e-06 5.390585384e-12 -0.004427657902)
(1.130948743e-05 8.979901844e-12 -0.007379645627)
(1.580341541e-05 1.256360628e-11 -0.01033195359)
(2.026801498e-05 1.613945074e-11 -0.01328470308)
(2.469566016e-05 1.970518303e-11 -0.01623800884)
(2.907925933e-05 2.325854401e-11 -0.01919197754)
(3.341233812e-05 2.679726406e-11 -0.02214670652)
(3.768910282e-05 3.031905865e-11 -0.02510228286)
(4.1904477e-05 3.382162341e-11 -0.0280587828)
(4.605411039e-05 3.730262854e-11 -0.03101627166)
(5.013435643e-05 4.075971354e-11 -0.03397480413)
(5.414221409e-05 4.419048224e-11 -0.0369344252)
(5.807523494e-05 4.759249897e-11 -0.03989517155)
(6.193139029e-05 5.09632864e-11 -0.04285707353)
(6.570890303e-05 5.430032559e-11 -0.04582015769)
(6.940604184e-05 5.760105911e-11 -0.04878444987)
(7.302088394e-05 6.08628971e-11 -0.05174997874)
(7.65510497e-05 6.408322732e-11 -0.05471677973)
(7.999341738e-05 6.725942928e-11 -0.0576848993)
(8.334382569e-05 7.0388892e-11 -0.06065439935)
(8.659677661e-05 7.346903574e-11 -0.06362536162)
(8.974497288e-05 7.649716622e-11 -0.06659772401)
(9.27797814e-05 7.947119257e-11 -0.06957195562)
(9.56898939e-05 8.23886066e-11 -0.07254805367)
(9.846196706e-05 8.524724202e-11 -0.07552621576)
(0.0001010802249 8.804508247e-11 -0.07850667524)
(0.0001035265674 9.078034559e-11 -0.08148969942)
(0.0001057804836 9.345145498e-11 -0.08447559063)
(0.0001078193672 9.605712177e-11 -0.08746468138)
(0.0001096185718 9.859630779e-11 -0.09045733327)
(0.0001111519425 1.010682984e-10 -0.09345392887)
(0.0001123919884 1.034726518e-10 -0.09645486895)
(0.0001133106003 1.058092662e-10 -0.09946056161)
(0.0001138792846 1.080783151e-10 -0.1024714187)
(0.0001140700044 1.102803018e-10 -0.105487843)
(0.0001138553948 1.124159864e-10 -0.1085102255)
(0.0001132096467 1.144864301e-10 -0.111538932)
(0.0001121086236 1.164929164e-10 -0.1145743013)
(0.0001105307067 1.184369892e-10 -0.1176166337)
(0.0001084567561 1.203203744e-10 -0.1206661911)
(0.0001058708592 1.221450151e-10 -0.1237231869)
(0.0001027601119 1.239129998e-10 -0.1267877894)
(9.911524768e-05 1.256266e-10 -0.1298601131)
(9.49302545e-05 1.272882098e-10 -0.132940225)
(9.020289027e-05 1.289003886e-10 -0.1360281374)
(8.493417604e-05 1.304658146e-10 -0.1391238156)
(7.912882017e-05 1.319873322e-10 -0.1422271729)
(7.279463607e-05 1.334679158e-10 -0.1453380786)
(6.594289501e-05 1.349107116e-10 -0.1484563541)
(5.858770601e-05 1.363189985e-10 -0.1515817816)
(5.074630748e-05 1.376962014e-10 -0.1547141009)
(4.243843477e-05 1.390458173e-10 -0.1578530178)
(3.368655453e-05 1.403713593e-10 -0.1609982019)
(2.451526633e-05 1.416762025e-10 -0.1641492944)
(1.495157402e-05 1.429634147e-10 -0.1673059051)
(5.024674228e-06 1.442355065e-10 -0.1704676149)
(-5.232608833e-06 1.454942367e-10 -0.1736339561)
(-1.577990906e-05 1.467406549e-10 -0.1768043577)
(-2.655448373e-05 1.479761222e-10 -0.1799779388)
)
;

boundaryField
{
    left
    {
        type            fixedValue;
        value           uniform (0 0 0);
    }
    right
    {
        type            fixedValue;
        value           uniform (-3.19892941e-05 1.485904278e-10 -0.1815655665);
    }
    beam
    {
        type            empty;
    }
}


// ************************************************************************* //
