/*--------------------------------*- C++ -*----------------------------------*\
| =========                 |                                                 |
| \\      /  F ield         | OpenFOAM: The Open Source CFD Toolbox           |
|  \\    /   O peration     | Version:  2312                                  |
|   \\  /    A nd           | Website:  www.openfoam.com                      |
|    \\/     M anipulation  |                                                 |
\*---------------------------------------------------------------------------*/
FoamFile
{
    version     2.0;
    format      ascii;
    arch        "LSB;label=32;scalar=64";
    class       surfaceVectorField;
    location    "0.16/beam";
    object      Gamma;
}
// * * * * * * * * * * * * * * * * * * * * * * * * * * * * * * * * * * * * * //

dimensions      [0 0 0 0 0 0 0];

oriented        oriented;

internalField   nonuniform List<vector> 
59
(
(0.0009113684175 -1.074711067e-16 -7.96746866e-08)
(0.0009113667263 -1.079609402e-16 -7.877817058e-08)
(0.0009113639264 -1.087588823e-16 -7.727475509e-08)
(0.0009113600459 -1.098385892e-16 -7.515205329e-08)
(0.0009113551236 -1.111652178e-16 -7.239538714e-08)
(0.0009113492087 -1.126976891e-16 -6.899000456e-08)
(0.0009113423596 -1.143896339e-16 -6.492387923e-08)
(0.0009113346435 -1.161928478e-16 -6.019093925e-08)
(0.0009113261354 -1.18058528e-16 -5.479345389e-08)
(0.0009113169166 -1.199386887e-16 -4.874470871e-08)
(0.0009113070732 -1.217881334e-16 -4.207124346e-08)
(0.000911296695 -1.235656796e-16 -3.48138013e-08)
(0.0009112858735 -1.252327595e-16 -2.70283939e-08)
(0.0009112747005 -1.267531179e-16 -1.878525778e-08)
(0.0009112632662 -1.280917154e-16 -1.016838177e-08)
(0.0009112516579 -1.292152017e-16 -1.273086525e-09)
(0.0009112399582 -1.300814644e-16 7.795897167e-09)
(0.0009112282442 -1.306424117e-16 1.692719153e-08)
(0.0009112165863 -1.308451848e-16 2.600489772e-08)
(0.0009112050477 -1.306194776e-16 3.491068135e-08)
(0.0009111936838 -1.298795274e-16 4.352436983e-08)
(0.0009111825423 -1.285181549e-16 5.17231822e-08)
(0.0009111716645 -1.264094295e-16 5.938123891e-08)
(0.0009111610801 -1.233987811e-16 6.636786032e-08)
(0.0009111508209 -1.19313955e-16 7.253744341e-08)
(0.0009111409037 -1.13957846e-16 7.773706552e-08)
(0.0009111313505 -1.07125054e-16 8.179205358e-08)
(0.0009111221709 -9.859857922e-17 8.451641982e-08)
(0.0009111133811 -8.818062601e-17 8.570878133e-08)
(0.0009111049877 -7.572556774e-17 8.516740176e-08)
(0.0009110970049 -6.111544859e-17 8.270434322e-08)
(0.0009110894395 -4.431157829e-17 7.816797876e-08)
(0.0009110823062 -2.546089804e-17 7.147854328e-08)
(0.0009110756132 -4.821750018e-18 6.265397069e-08)
(0.0009110693757 1.715424327e-17 5.185908742e-08)
(0.0009110636028 3.98659518e-17 3.941856655e-08)
(0.0009110583088 6.255138144e-17 2.585674627e-08)
(0.0009110535022 8.440529253e-17 1.187117784e-08)
(0.000911049195 1.046524578e-16 -1.670050284e-09)
(0.000911045394 1.227555609e-16 -1.381679566e-08)
(0.0009110421086 1.385757214e-16 -2.360349212e-08)
(0.0009110393439 1.526240589e-16 -3.01909308e-08)
(0.0009110371062 1.662231282e-16 -3.297706876e-08)
(0.0009110353979 1.81658957e-16 -3.17294264e-08)
(0.0009110342208 2.021490745e-16 -2.66632295e-08)
(0.0009110335723 2.316896237e-16 -1.846288464e-08)
(0.0009110334484 2.745995875e-16 -8.235189312e-09)
(0.0009110338429 3.349224531e-16 2.643819628e-09)
(0.0009110347491 4.154386237e-16 1.271455336e-08)
(0.000911036163 5.166777704e-16 2.068618009e-08)
(0.0009110380824 6.354665621e-16 2.562160627e-08)
(0.0009110405106 7.636333377e-16 2.706694198e-08)
(0.000911043452 8.858708663e-16 2.500914544e-08)
(0.0009110469152 9.77105902e-16 1.966104403e-08)
(0.0009110509063 9.970645093e-16 1.103099334e-08)
(0.0009110554336 8.79944032e-16 -1.795994371e-09)
(0.0009110604998 5.123080569e-16 -2.179020412e-08)
(0.0009110661094 -3.143923969e-16 -5.602448655e-08)
(0.0009110722582 -2.003571281e-15 -1.194756461e-07)
)
;

boundaryField
{
    left
    {
        type            calculated;
        value           uniform (-0.0009113689831 -4.50649134e-14 7.997252828e-08);
    }
    right
    {
        type            calculated;
        value           uniform (0.0009110789356 -5.053596927e-14 -2.427472143e-07);
    }
    beam
    {
        type            empty;
        value           nonuniform List<vector> 0();
    }
}


// ************************************************************************* //
