/*--------------------------------*- C++ -*----------------------------------*\
| =========                 |                                                 |
| \\      /  F ield         | OpenFOAM: The Open Source CFD Toolbox           |
|  \\    /   O peration     | Version:  2312                                  |
|   \\  /    A nd           | Website:  www.openfoam.com                      |
|    \\/     M anipulation  |                                                 |
\*---------------------------------------------------------------------------*/
FoamFile
{
    version     2.0;
    format      ascii;
    arch        "LSB;label=32;scalar=64";
    class       surfaceVectorField;
    location    "0.16/beam";
    object      K;
}
// * * * * * * * * * * * * * * * * * * * * * * * * * * * * * * * * * * * * * //

dimensions      [0 -1 0 0 0 0 0];

oriented        oriented;

internalField   nonuniform List<vector> 
59
(
(-4.615440196e-17 -0.000884364789 1.189727579e-12)
(-9.230433371e-17 -0.001762113411 2.383085185e-12)
(-1.384443341e-16 -0.002626568076 3.583576898e-12)
(-1.845678459e-16 -0.003470936518 4.794470084e-12)
(-2.306658501e-16 -0.004288276501 6.018694061e-12)
(-2.767271256e-16 -0.005071482705 7.258756542e-12)
(-3.227357745e-16 -0.005813301411 8.516681369e-12)
(-3.686676365e-16 -0.00650637858 9.79396764e-12)
(-4.144937955e-16 -0.007143339049 1.109157778e-11)
(-4.601681955e-16 -0.007716893768 1.240993928e-11)
(-5.05631096e-16 -0.008219974258 1.37489621e-11)
(-5.508086076e-16 -0.008645884727 1.510807725e-11)
(-5.956000668e-16 -0.008988465346 1.648627413e-11)
(-6.398789144e-16 -0.009242255645 1.788212831e-11)
(-6.834861554e-16 -0.009402649503 1.929381996e-11)
(-7.26247835e-16 -0.009466034118 2.071915123e-11)
(-7.679200139e-16 -0.00942990491 2.215550512e-11)
(-8.082345108e-16 -0.009292954468 2.35997654e-11)
(-8.469154234e-16 -0.009055134405 2.504825789e-11)
(-8.836381038e-16 -0.00871769388 2.649662504e-11)
(-9.180557406e-16 -0.00828320324 2.793964475e-11)
(-9.497810087e-16 -0.007755594793 2.937098675e-11)
(-9.784403537e-16 -0.007140145963 3.078310938e-11)
(-1.003603756e-15 -0.006443555018 3.216691772e-11)
(-1.024826667e-15 -0.005674083398 3.351142531e-11)
(-1.04166824e-15 -0.004841629344 3.480364027e-11)
(-1.053646486e-15 -0.003957906418 3.602834109e-11)
(-1.060285394e-15 -0.003036625336 3.716796608e-11)
(-1.061103812e-15 -0.002093643527 3.820265365e-11)
(-1.055687668e-15 -0.001147050951 3.911064169e-11)
(-1.043635587e-15 -0.0002170973918 3.986870597e-11)
(-1.024702133e-15 0.0006740865732 4.045275475e-11)
(-9.988663751e-16 0.00150308705 4.083929461e-11)
(-9.663334269e-16 0.002246147564 4.100707655e-11)
(-9.276946611e-16 0.002880522542 4.093878407e-11)
(-8.838847115e-16 0.003386177967 4.062293292e-11)
(-8.363202112e-16 0.003747782095 4.00555909e-11)
(-7.867452836e-16 0.00395677241 3.924150901e-11)
(-7.372742974e-16 0.004013259867 3.819419691e-11)
(-6.900904581e-16 0.00392742918 3.693443847e-11)
(-6.473485136e-16 0.003720079417 3.548676891e-11)
(-6.107710081e-16 0.003422009745 3.387366528e-11)
(-5.814578919e-16 0.003072006217 3.210745243e-11)
(-5.595622608e-16 0.002713479747 3.018046608e-11)
(-5.442496341e-16 0.002389938528 2.805455517e-11)
(-5.337534425e-16 0.002139906679 2.565160101e-11)
(-5.257459985e-16 0.001991984202 2.284741381e-11)
(-5.179088092e-16 0.001961013464 1.947146115e-11)
(-5.085878175e-16 0.002046124055 1.531538966e-11)
(-4.97311384e-16 0.002231204652 1.015248025e-11)
(-4.848159934e-16 0.002487798482 3.770630592e-12)
(-4.724268849e-16 0.002779742604 -3.97945821e-12)
(-4.607032303e-16 0.00306828992 -1.311706982e-11)
(-4.477811662e-16 0.003315807527 -2.343789225e-11)
(-4.280184998e-16 0.003485899864 -3.437577513e-11)
(-3.919386401e-16 0.003537168983 -4.47772981e-11)
(-3.284272134e-16 0.003406727036 -5.24968329e-11)
(-2.302667647e-16 0.002976112247 -5.360661001e-11)
(-1.054747016e-16 0.002004835751 -4.079202362e-11)
)
;

boundaryField
{
    left
    {
        type            calculated;
        value           uniform (-2.365003322e-32 1.511421249e-34 2.190884385e-32);
    }
    right
    {
        type            calculated;
        value           uniform (-3.264590565e-31 -1.280237696e-29 -1.129293052e-32);
    }
    beam
    {
        type            empty;
        value           nonuniform List<vector> 0();
    }
}


// ************************************************************************* //
