/*--------------------------------*- C++ -*----------------------------------*\
| =========                 |                                                 |
| \\      /  F ield         | OpenFOAM: The Open Source CFD Toolbox           |
|  \\    /   O peration     | Version:  2312                                  |
|   \\  /    A nd           | Website:  www.openfoam.com                      |
|    \\/     M anipulation  |                                                 |
\*---------------------------------------------------------------------------*/
FoamFile
{
    version     2.0;
    format      ascii;
    arch        "LSB;label=32;scalar=64";
    class       surfaceVectorField;
    location    "0.16/beam";
    object      M;
}
// * * * * * * * * * * * * * * * * * * * * * * * * * * * * * * * * * * * * * //

dimensions      [1 2 -2 0 0 0 0];

oriented        oriented;

internalField   nonuniform List<vector> 
59
(
(3.645397842e-17 -5.334364596e-07 7.16740366e-16)
(7.299661794e-17 -1.06288214e-06 1.435668298e-15)
(1.097113173e-16 -1.584309091e-06 2.158895555e-15)
(1.466714239e-16 -2.093620314e-06 2.888391425e-15)
(1.839357883e-16 -2.58662835e-06 3.625921745e-15)
(2.215449328e-16 -3.059047367e-06 4.372998621e-15)
(2.595179755e-16 -3.506502025e-06 5.13084297e-15)
(2.978503605e-16 -3.92455647e-06 5.900359945e-15)
(3.365126445e-16 -4.308762108e-06 6.682131786e-15)
(3.754499497e-16 -4.654722284e-06 7.476418899e-15)
(4.145821972e-16 -4.958173393e-06 8.283170317e-15)
(4.538053175e-16 -5.215076625e-06 9.102046995e-15)
(4.92992849e-16 -5.421716458e-06 9.932444211e-15)
(5.319977392e-16 -5.574799213e-06 1.077350829e-14)
(5.706543817e-16 -5.671546543e-06 1.162414764e-14)
(6.087811201e-16 -5.709779256e-06 1.24830431e-14)
(6.461816866e-16 -5.687986623e-06 1.334862302e-14)
(6.826461188e-16 -5.605380034e-06 1.421901491e-14)
(7.179527246e-16 -5.461930301e-06 1.50920099e-14)
(7.518687771e-16 -5.258390901e-06 1.596498692e-14)
(7.841502936e-16 -4.99631223e-06 1.68348034e-14)
(8.145410707e-16 -4.678066201e-06 1.769764818e-14)
(8.427752678e-16 -4.306836083e-06 1.854897916e-14)
(8.68575458e-16 -3.886662177e-06 1.938331692e-14)
(8.916525332e-16 -3.422527668e-06 2.019404064e-14)
(9.117109943e-16 -2.920403037e-06 2.097331901e-14)
(9.284536503e-16 -2.387353741e-06 2.171197486e-14)
(9.415898995e-16 -1.83164989e-06 2.239941798e-14)
(9.508480013e-16 -1.262856464e-06 2.302366907e-14)
(9.559952824e-16 -6.918850747e-07 2.357159995e-14)
(9.568564974e-16 -1.309501074e-07 2.402919755e-14)
(9.533311934e-16 4.065995837e-07 2.438192215e-14)
(9.454235042e-16 9.066410656e-07 2.46155911e-14)
(9.332655957e-16 1.354844764e-06 2.471737151e-14)
(9.171276599e-16 1.73749087e-06 2.467679898e-14)
(8.974180965e-16 2.042495143e-06 2.448692434e-14)
(8.746635938e-16 2.260609691e-06 2.414535268e-14)
(8.494638765e-16 2.386669723e-06 2.365492793e-14)
(8.22415424e-16 2.420742166e-06 2.302378157e-14)
(7.940032227e-16 2.368970297e-06 2.22644408e-14)
(7.644614285e-16 2.243899823e-06 2.139170753e-14)
(7.33611077e-16 2.06410837e-06 2.041915789e-14)
(7.00687926e-16 1.852991142e-06 1.935426306e-14)
(6.641797852e-16 1.636732994e-06 1.819245751e-14)
(6.217000769e-16 1.441577461e-06 1.691080692e-14)
(5.699237858e-16 1.29076175e-06 1.546228745e-14)
(5.046213824e-16 1.201536983e-06 1.377209972e-14)
(4.208148304e-16 1.182855867e-06 1.173749859e-14)
(3.130942393e-16 1.234193384e-06 9.232924648e-15)
(1.761188622e-16 1.345831409e-06 6.12172862e-15)
(5.35980746e-18 1.500605215e-06 2.276052131e-15)
(-2.018490297e-16 1.676701822e-06 -2.394125525e-15)
(-4.447975165e-16 1.850749524e-06 -7.900474217e-15)
(-7.171437832e-16 2.000048679e-06 -1.411991167e-14)
(-1.003341992e-15 2.102645995e-06 -2.071129384e-14)
(-1.272539058e-15 2.13357081e-06 -2.697957356e-14)
(-1.467422822e-15 2.054890054e-06 -3.16317999e-14)
(-1.482492602e-15 1.795149242e-06 -3.230113332e-14)
(-1.120211576e-15 1.209288857e-06 -2.457990592e-14)
)
;

boundaryField
{
    left
    {
        type            calculated;
        value           uniform (-2.786485158e-35 9.116538402e-38 1.456672447e-35);
    }
    right
    {
        type            calculated;
        value           uniform (-3.937574007e-34 -7.722214548e-33 1.019326044e-35);
    }
    beam
    {
        type            empty;
        value           nonuniform List<vector> 0();
    }
}


// ************************************************************************* //
