/*--------------------------------*- C++ -*----------------------------------*\
| =========                 |                                                 |
| \\      /  F ield         | OpenFOAM: The Open Source CFD Toolbox           |
|  \\    /   O peration     | Version:  2312                                  |
|   \\  /    A nd           | Website:  www.openfoam.com                      |
|    \\/     M anipulation  |                                                 |
\*---------------------------------------------------------------------------*/
FoamFile
{
    version     2.0;
    format      ascii;
    arch        "LSB;label=32;scalar=64";
    class       pointVectorField;
    location    "0.16/beam";
    object      pointW;
}
// * * * * * * * * * * * * * * * * * * * * * * * * * * * * * * * * * * * * * //

dimensions      [0 1 0 0 0 0 0];

internalField   nonuniform List<vector> 
1952
(
(-0.0001916235737 -2.758285785e-16 4.59258206e-06)
(-0.0001879415267 -2.70508442e-16 4.504335596e-06)
(-0.0001770371873 -2.547875105e-16 4.242994714e-06)
(-0.0001593292528 -2.294171797e-16 3.818594206e-06)
(-0.0001354984661 -1.95156391e-16 3.247449219e-06)
(-0.0001064603088 -1.530893468e-16 2.551500815e-06)
(-7.333098823e-05 -1.053844512e-16 1.757500784e-06)
(-3.738389089e-05 -5.377642776e-17 8.959679818e-07)
(1.597962145e-14 0 -4.902526898e-16)
(3.738389092e-05 5.377642776e-17 -8.959679828e-07)
(7.333098826e-05 1.053844512e-16 -1.757500785e-06)
(0.0001064603089 1.530893468e-16 -2.551500816e-06)
(0.0001354984662 1.95156391e-16 -3.24744922e-06)
(0.0001593292528 2.294171797e-16 -3.818594206e-06)
(0.0001770371873 2.547875105e-16 -4.242994714e-06)
(0.0001879415268 2.70508442e-16 -4.504335596e-06)
(0.0001916235737 2.758285785e-16 -4.59258206e-06)
(0.0001879415267 2.70508442e-16 -4.504335596e-06)
(0.0001770371873 2.547875105e-16 -4.242994714e-06)
(0.0001593292528 2.294171797e-16 -3.818594206e-06)
(0.0001354984661 1.95156391e-16 -3.247449219e-06)
(0.0001064603088 1.530893468e-16 -2.551500815e-06)
(7.333098823e-05 1.053844512e-16 -1.757500784e-06)
(3.738389089e-05 5.377642776e-17 -8.959679818e-07)
(-1.597960327e-14 0 4.902522542e-16)
(-3.738389092e-05 -5.377642776e-17 8.959679828e-07)
(-7.333098826e-05 -1.053844512e-16 1.757500785e-06)
(-0.0001064603089 -1.530893468e-16 2.551500816e-06)
(-0.0001354984662 -1.95156391e-16 3.24744922e-06)
(-0.0001593292528 -2.294171797e-16 3.818594206e-06)
(-0.0001770371873 -2.547875105e-16 4.242994714e-06)
(-0.0001879415268 -2.70508442e-16 4.504335596e-06)
(-0.0002020544475 1.783960735e-13 -0.002117947873)
(-0.0001983739035 1.784013475e-13 -0.002118036047)
(-0.0001874740152 1.7841696e-13 -0.002118297175)
(-0.0001697733091 1.78442764e-13 -0.002118721229)
(-0.0001459522501 1.784770248e-13 -0.002119291907)
(-0.0001169259462 1.785186582e-13 -0.002119987287)
(-8.381014896e-05 1.785663631e-13 -0.002120780639)
(-4.787772519e-05 1.786175374e-13 -0.002121641468)
(-1.050909437e-05 1.786713139e-13 -0.002122536705)
(2.685953645e-05 1.787250903e-13 -0.002123431941)
(6.279196021e-05 1.78777132e-13 -0.00212429277)
(9.590775744e-05 1.788248369e-13 -0.002125086122)
(0.0001249340614 1.788664702e-13 -0.002125781502)
(0.0001487551203 1.78900731e-13 -0.00212635218)
(0.0001664558264 1.789261014e-13 -0.002126776234)
(0.0001773557147 1.789417139e-13 -0.002127037362)
(0.0001810362587 1.789471074e-13 -0.002127125536)
(0.0001773557147 1.789417139e-13 -0.002127037362)
(0.0001664558264 1.789261014e-13 -0.002126776234)
(0.0001487551203 1.78900731e-13 -0.00212635218)
(0.0001249340614 1.788664702e-13 -0.002125781502)
(9.590775741e-05 1.788248369e-13 -0.002125086122)
(6.279196018e-05 1.78777132e-13 -0.00212429277)
(2.685953641e-05 1.787250903e-13 -0.002123431941)
(-1.050909441e-05 1.786713139e-13 -0.002122536705)
(-4.787772522e-05 1.786175374e-13 -0.002121641468)
(-8.381014899e-05 1.785663631e-13 -0.002120780639)
(-0.0001169259462 1.785186582e-13 -0.002119987287)
(-0.0001459522502 1.784770248e-13 -0.002119291907)
(-0.0001697733091 1.78442764e-13 -0.002118721229)
(-0.0001874740152 1.7841696e-13 -0.002118297175)
(-0.0001983739035 1.784013475e-13 -0.002118036047)
(-0.0002122466084 3.584048327e-13 -0.004238765815)
(-0.0002085705622 3.584100247e-13 -0.004238853774)
(-0.0001976839941 3.584257457e-13 -0.004239114263)
(-0.0001800049191 3.584515497e-13 -0.004239537281)
(-0.0001562129705 3.584853768e-13 -0.004240106565)
(-0.0001272221381 3.585270102e-13 -0.004240800245)
(-9.414680984e-05 3.585747151e-13 -0.004241591658)
(-5.825829715e-05 3.586254557e-13 -0.004242450384)
(-2.093533252e-05 3.586792321e-13 -0.004243343432)
(1.638763212e-05 3.587330086e-13 -0.00424423648)
(5.227614481e-05 3.587846166e-13 -0.004245095206)
(8.535147301e-05 3.588323215e-13 -0.004245886618)
(0.0001143423055 3.588739549e-13 -0.004246580299)
(0.000138134254 3.58907782e-13 -0.004247149583)
(0.000155813329 3.589331523e-13 -0.0042475726)
(0.0001666998972 3.589486564e-13 -0.00424783309)
(0.0001703759433 3.589539774e-13 -0.004247921049)
(0.0001666998972 3.589486564e-13 -0.00424783309)
(0.000155813329 3.589331523e-13 -0.0042475726)
(0.000138134254 3.58907782e-13 -0.004247149583)
(0.0001143423055 3.588739549e-13 -0.004246580299)
(8.535147298e-05 3.588323215e-13 -0.004245886618)
(5.227614478e-05 3.587846166e-13 -0.004245095206)
(1.638763209e-05 3.587330086e-13 -0.00424423648)
(-2.093533255e-05 3.586792321e-13 -0.004243343432)
(-5.825829719e-05 3.586254557e-13 -0.004242450384)
(-9.414680987e-05 3.585747151e-13 -0.004241591658)
(-0.0001272221381 3.585270102e-13 -0.004240800245)
(-0.0001562129705 3.584853768e-13 -0.004240106565)
(-0.0001800049191 3.584515497e-13 -0.004239537281)
(-0.0001976839941 3.584257457e-13 -0.004239114263)
(-0.0002085705622 3.584100247e-13 -0.004238853774)
(-0.0002221197862 5.430937404e-13 -0.006356144144)
(-0.0002184511988 5.430989859e-13 -0.006356231746)
(-0.0002075867197 5.431145984e-13 -0.006356491178)
(-0.0001899435158 5.431401856e-13 -0.00635691248)
(-0.0001661998415 5.431740127e-13 -0.006357479455)
(-0.0001372678319 5.432152124e-13 -0.006358170322)
(-0.0001042596141 5.432624836e-13 -0.006358958524)
(-6.844391985e-05 5.43313658e-13 -0.006359813767)
(-3.119668415e-05 5.43366567e-13 -0.006360703193)
(6.05055156e-06 5.434194761e-13 -0.006361592619)
(4.186624585e-05 5.434715178e-13 -0.006362447861)
(7.487446365e-05 5.43518789e-13 -0.006363236063)
(0.0001038064732 5.435599887e-13 -0.00636392693)
(0.0001275501475 5.435938158e-13 -0.006364493905)
(0.0001451933513 5.436189693e-13 -0.006364915207)
(0.0001560578305 5.43634365e-13 -0.006365174639)
(0.0001597264179 5.436396704e-13 -0.006365262242)
(0.0001560578305 5.43634365e-13 -0.006365174639)
(0.0001451933513 5.436189693e-13 -0.006364915207)
(0.0001275501475 5.435938158e-13 -0.006364493905)
(0.0001038064732 5.435599887e-13 -0.00636392693)
(7.487446362e-05 5.43518789e-13 -0.006363236063)
(4.186624582e-05 5.434715178e-13 -0.006362447861)
(6.050551527e-06 5.434194761e-13 -0.006361592619)
(-3.119668418e-05 5.43366567e-13 -0.006360703193)
(-6.844391989e-05 5.43313658e-13 -0.006359813767)
(-0.0001042596142 5.432624836e-13 -0.006358958524)
(-0.000137267832 5.432152124e-13 -0.006358170322)
(-0.0001661998415 5.431740127e-13 -0.006357479455)
(-0.0001899435158 5.431401856e-13 -0.00635691248)
(-0.0002075867197 5.431145984e-13 -0.006356491178)
(-0.0002184511988 5.430989859e-13 -0.006356231746)
(-0.0002315965461 7.348199828e-13 -0.008468391774)
(-0.0002279383218 7.348251781e-13 -0.008468478882)
(-0.0002171045327 7.348407906e-13 -0.00846873685)
(-0.0001995111674 7.348657273e-13 -0.008469155774)
(-0.0001758345643 7.348995544e-13 -0.008469719548)
(-0.000146984282 7.349403204e-13 -0.008470406515)
(-0.0001140693059 7.349871579e-13 -0.008471190268)
(-7.83547839e-05 7.350370312e-13 -0.008472040683)
(-4.121276431e-05 7.350899403e-13 -0.008472925088)
(-4.070744717e-06 7.351428494e-13 -0.008473809494)
(3.164377728e-05 7.351944574e-13 -0.008474659908)
(6.455875335e-05 7.352412949e-13 -0.008475443662)
(9.340903569e-05 7.352820609e-13 -0.008476130629)
(0.0001170856388 7.35315888e-13 -0.008476694403)
(0.000134679004 7.353408247e-13 -0.008477113327)
(0.0001455127931 7.353560035e-13 -0.008477371295)
(0.0001491710175 7.353612755e-13 -0.008477458402)
(0.0001455127931 7.353560035e-13 -0.008477371295)
(0.000134679004 7.353408247e-13 -0.008477113327)
(0.0001170856387 7.35315888e-13 -0.008476694403)
(9.340903566e-05 7.352820609e-13 -0.008476130629)
(6.455875332e-05 7.352412949e-13 -0.008475443662)
(3.164377724e-05 7.351944574e-13 -0.008474659908)
(-4.070744751e-06 7.351428494e-13 -0.008473809494)
(-4.121276434e-05 7.350899403e-13 -0.008472925088)
(-7.835478393e-05 7.350370312e-13 -0.008472040683)
(-0.0001140693059 7.349871579e-13 -0.008471190268)
(-0.000146984282 7.349403204e-13 -0.008470406515)
(-0.0001758345643 7.348995544e-13 -0.008469719548)
(-0.0001995111674 7.348657273e-13 -0.008469155774)
(-0.0002171045327 7.348407906e-13 -0.00846873685)
(-0.0002279383218 7.348251781e-13 -0.008468478882)
(-0.0002406031287 9.359610049e-13 -0.01057385696)
(-0.0002369580916 9.359661483e-13 -0.01057394344)
(-0.0002261633566 9.359813272e-13 -0.01057419955)
(-0.0002086334125 9.36006047e-13 -0.01057461546)
(-0.0001850421597 9.360394404e-13 -0.01057517517)
(-0.000156295878 9.360797727e-13 -0.01057585719)
(-0.000123499555 9.361261766e-13 -0.0105766353)
(-8.791377807e-05 9.361764836e-13 -0.01057747959)
(-5.090564942e-05 9.362285253e-13 -0.01057835763)
(-1.389752076e-05 9.36280567e-13 -0.01057923567)
(2.168825619e-05 9.363308739e-13 -0.01058007996)
(5.448457914e-05 9.363772778e-13 -0.01058085807)
(8.32308609e-05 9.364176101e-13 -0.01058154009)
(0.0001068221137 9.364510035e-13 -0.0105820998)
(0.0001243520577 9.364757234e-13 -0.01058251571)
(0.0001351467928 9.364909022e-13 -0.01058277182)
(0.0001387918298 9.364961056e-13 -0.0105828583)
(0.0001351467928 9.364909022e-13 -0.01058277182)
(0.0001243520577 9.364757234e-13 -0.01058251571)
(0.0001068221136 9.364510035e-13 -0.0105820998)
(8.323086087e-05 9.364176101e-13 -0.01058154009)
(5.448457911e-05 9.363772778e-13 -0.01058085807)
(2.168825616e-05 9.363308739e-13 -0.01058007996)
(-1.38975208e-05 9.36280567e-13 -0.01057923567)
(-5.090564945e-05 9.362285253e-13 -0.01057835763)
(-8.791377811e-05 9.361764836e-13 -0.01057747959)
(-0.0001234995551 9.361261766e-13 -0.0105766353)
(-0.000156295878 9.360797727e-13 -0.01057585719)
(-0.0001850421598 9.360394404e-13 -0.01057517517)
(-0.0002086334125 9.36006047e-13 -0.01057461546)
(-0.0002261633566 9.359813272e-13 -0.01057419955)
(-0.0002369580916 9.359661483e-13 -0.01057394344)
(-0.0002490702861 1.148920216e-12 -0.01267094089)
(-0.0002454411567 1.148925247e-12 -0.01267102662)
(-0.000234693532 1.148940318e-12 -0.01267128049)
(-0.0002172400922 1.148965038e-12 -0.01267169278)
(-0.0001937517965 1.148997564e-12 -0.01267224761)
(-0.0001651309693 1.149037462e-12 -0.01267292369)
(-0.0001324777762 1.149082999e-12 -0.01267369502)
(-9.704730281e-05 1.149132872e-12 -0.01267453195)
(-6.020068515e-05 1.149184047e-12 -0.01267540234)
(-2.33540675e-05 1.149235221e-12 -0.01267627273)
(1.207640589e-05 1.149285094e-12 -0.01267710966)
(4.472959901e-05 1.149330631e-12 -0.01267788099)
(7.335042615e-05 1.149370529e-12 -0.01267855707)
(9.683872189e-05 1.149403055e-12 -0.0126791119)
(0.0001142921617 1.149427342e-12 -0.01267952419)
(0.0001250397863 1.149442412e-12 -0.01267977807)
(0.0001286689157 1.149447406e-12 -0.01267986379)
(0.0001250397863 1.149442412e-12 -0.01267977807)
(0.0001142921617 1.149427342e-12 -0.01267952419)
(9.683872187e-05 1.149403055e-12 -0.0126791119)
(7.335042613e-05 1.149370529e-12 -0.01267855707)
(4.472959898e-05 1.149330631e-12 -0.01267788099)
(1.207640585e-05 1.149285094e-12 -0.01267710966)
(-2.335406754e-05 1.149235221e-12 -0.01267627273)
(-6.020068519e-05 1.149184047e-12 -0.01267540234)
(-9.704730285e-05 1.149132872e-12 -0.01267453195)
(-0.0001324777762 1.149082999e-12 -0.01267369502)
(-0.0001651309694 1.149037462e-12 -0.01267292369)
(-0.0001937517965 1.148997564e-12 -0.01267224761)
(-0.0002172400922 1.148965038e-12 -0.01267169278)
(-0.0002346935321 1.148940318e-12 -0.01267128049)
(-0.0002454411567 1.148925247e-12 -0.01267102662)
(-0.0002569341018 1.376131873e-12 -0.01475811162)
(-0.0002533234722 1.376136835e-12 -0.01475819648)
(-0.0002426306344 1.37615158e-12 -0.01475844777)
(-0.0002252661649 1.376175649e-12 -0.01475885586)
(-0.0002018976026 1.376207742e-12 -0.01475940505)
(-0.0001734226724 1.376247206e-12 -0.01476007425)
(-0.0001409359315 1.376291876e-12 -0.01476083773)
(-0.0001056860678 1.376340014e-12 -0.01476166615)
(-6.902727872e-05 1.376390321e-12 -0.01476252768)
(-3.236848964e-05 1.376440628e-12 -0.01476338921)
(2.881374089e-06 1.376489634e-12 -0.01476421763)
(3.536811496e-05 1.376534303e-12 -0.01476498111)
(6.384304515e-05 1.376573768e-12 -0.01476565031)
(8.721160743e-05 1.376605861e-12 -0.0147661995)
(0.0001045760769 1.376629496e-12 -0.01476660759)
(0.0001152689147 1.376644241e-12 -0.01476685888)
(0.0001188795443 1.376649246e-12 -0.01476694374)
(0.0001152689147 1.376644241e-12 -0.01476685888)
(0.0001045760769 1.376629496e-12 -0.01476660759)
(8.721160741e-05 1.376605861e-12 -0.0147661995)
(6.384304512e-05 1.376573768e-12 -0.01476565031)
(3.536811492e-05 1.376534303e-12 -0.01476498111)
(2.881374049e-06 1.376489634e-12 -0.01476421763)
(-3.236848968e-05 1.376440628e-12 -0.01476338921)
(-6.902727876e-05 1.376390321e-12 -0.01476252768)
(-0.0001056860678 1.376340014e-12 -0.01476166615)
(-0.0001409359316 1.376291876e-12 -0.01476083773)
(-0.0001734226724 1.376247206e-12 -0.01476007425)
(-0.0002018976026 1.376207742e-12 -0.01475940505)
(-0.0002252661649 1.376175649e-12 -0.01475885586)
(-0.0002426306344 1.37615158e-12 -0.01475844777)
(-0.0002533234722 1.376136835e-12 -0.01475819648)
(-0.0002641367799 1.62006502e-12 -0.01683391826)
(-0.000260547089 1.620069964e-12 -0.01683400213)
(-0.0002499162612 1.620084275e-12 -0.01683425052)
(-0.0002326524918 1.62010726e-12 -0.01683465388)
(-0.0002094194487 1.620138919e-12 -0.01683519672)
(-0.0001811096504 1.620177083e-12 -0.01683585818)
(-0.0001488113069 1.620220885e-12 -0.01683661282)
(-0.0001137658643 1.620268156e-12 -0.01683743166)
(-7.731966712e-05 1.620317595e-12 -0.01683828322)
(-4.08734699e-05 1.620367035e-12 -0.01683913478)
(-5.828027389e-06 1.620414306e-12 -0.01683995361)
(2.647031618e-05 1.620458108e-12 -0.01684070826)
(5.47801144e-05 1.620496272e-12 -0.01684136971)
(7.801315757e-05 1.620527931e-12 -0.01684191255)
(9.527692696e-05 1.620551349e-12 -0.01684231591)
(0.0001059077548 1.620565661e-12 -0.0168425643)
(0.0001094974456 1.62057046e-12 -0.01684264818)
(0.0001059077547 1.620565661e-12 -0.0168425643)
(9.527692694e-05 1.620551349e-12 -0.01684231591)
(7.801315755e-05 1.620527931e-12 -0.01684191255)
(5.478011437e-05 1.620496272e-12 -0.01684136971)
(2.647031614e-05 1.620458108e-12 -0.01684070826)
(-5.828027431e-06 1.620414306e-12 -0.01683995361)
(-4.087346994e-05 1.620367035e-12 -0.01683913478)
(-7.731966717e-05 1.620317595e-12 -0.01683828322)
(-0.0001137658644 1.620268156e-12 -0.01683743166)
(-0.0001488113069 1.620220885e-12 -0.01683661282)
(-0.0001811096505 1.620177083e-12 -0.01683585818)
(-0.0002094194487 1.620138919e-12 -0.01683519672)
(-0.0002326524919 1.62010726e-12 -0.01683465388)
(-0.0002499162612 1.620084275e-12 -0.01683425052)
(-0.000260547089 1.620069964e-12 -0.01683400213)
(-0.0002706273913 1.883226426e-12 -0.01889700532)
(-0.0002670609002 1.883231201e-12 -0.01889708811)
(-0.0002564987779 1.883245079e-12 -0.0188973333)
(-0.0002393465818 1.883267847e-12 -0.01889773146)
(-0.0002162636904 1.883298639e-12 -0.0188982673)
(-0.0001881368544 1.883335501e-12 -0.01889892023)
(-0.0001560472504 1.883378002e-12 -0.01889966515)
(-0.0001212283016 1.88342484e-12 -0.01890047343)
(-8.501765089e-05 1.883472545e-12 -0.01890131401)
(-4.880700022e-05 1.883520249e-12 -0.01890215459)
(-1.398805139e-05 1.88356622e-12 -0.01890296287)
(1.81015526e-05 1.88360872e-12 -0.01890370779)
(4.622838864e-05 1.883645583e-12 -0.01890436072)
(6.931127998e-05 1.883676375e-12 -0.01890489656)
(8.646347609e-05 1.883698709e-12 -0.01890529472)
(9.702559837e-05 1.883713021e-12 -0.01890553991)
(0.0001005920895 1.8837176e-12 -0.0189056227)
(9.702559836e-05 1.883713021e-12 -0.01890553991)
(8.646347607e-05 1.883698709e-12 -0.01890529472)
(6.931127996e-05 1.883676375e-12 -0.01890489656)
(4.622838861e-05 1.883645583e-12 -0.01890436072)
(1.810155256e-05 1.88360872e-12 -0.01890370779)
(-1.398805144e-05 1.88356622e-12 -0.01890296287)
(-4.880700027e-05 1.883520249e-12 -0.01890215459)
(-8.501765094e-05 1.883472545e-12 -0.01890131401)
(-0.0001212283016 1.88342484e-12 -0.01890047343)
(-0.0001560472504 1.883378002e-12 -0.01889966515)
(-0.0001881368544 1.883335501e-12 -0.01889892023)
(-0.0002162636905 1.883298639e-12 -0.0188982673)
(-0.0002393465818 1.883267847e-12 -0.01889773146)
(-0.0002564987779 1.883245079e-12 -0.0188973333)
(-0.0002670609002 1.883231201e-12 -0.01889708811)
(-0.0002763625554 2.16816246e-12 -0.02094612717)
(-0.0002728213217 2.168166905e-12 -0.02094620879)
(-0.0002623339991 2.168180349e-12 -0.02094645051)
(-0.0002453032728 2.16820225e-12 -0.02094684306)
(-0.0002223838518 2.16823174e-12 -0.02094737133)
(-0.0001944562066 2.168267735e-12 -0.02094801504)
(-0.0001625938574 2.168308935e-12 -0.02094874944)
(-0.0001280214923 2.168354038e-12 -0.0209495463)
(-9.206728112e-05 2.168400008e-12 -0.02095037502)
(-5.611307e-05 2.168445978e-12 -0.02095120373)
(-2.154070484e-05 2.168490214e-12 -0.02095200059)
(1.032164438e-05 2.168531413e-12 -0.02095273499)
(3.82492895e-05 2.168567409e-12 -0.0209533787)
(6.116871054e-05 2.168596899e-12 -0.02095390697)
(7.819943683e-05 2.1686188e-12 -0.02095429952)
(8.86867594e-05 2.168632244e-12 -0.02095454124)
(9.222799309e-05 2.168636812e-12 -0.02095462286)
(8.868675939e-05 2.168632244e-12 -0.02095454124)
(7.819943681e-05 2.1686188e-12 -0.02095429952)
(6.116871051e-05 2.168596899e-12 -0.02095390697)
(3.824928946e-05 2.168567409e-12 -0.0209533787)
(1.032164434e-05 2.168531413e-12 -0.02095273499)
(-2.154070489e-05 2.168490214e-12 -0.02095200059)
(-5.611307005e-05 2.168445978e-12 -0.02095120373)
(-9.206728118e-05 2.168400008e-12 -0.02095037502)
(-0.0001280214923 2.168354038e-12 -0.0209495463)
(-0.0001625938575 2.168308935e-12 -0.02094874944)
(-0.0001944562067 2.168267735e-12 -0.02094801504)
(-0.0002223838518 2.16823174e-12 -0.02094737133)
(-0.0002453032728 2.16820225e-12 -0.02094684306)
(-0.0002623339991 2.168180349e-12 -0.02094645051)
(-0.0002728213217 2.168166905e-12 -0.02094620879)
(-0.0002813070368 2.477459904e-12 -0.02298016222)
(-0.000277792891 2.477464306e-12 -0.0229802426)
(-0.0002673857886 2.477476991e-12 -0.02298048064)
(-0.0002504853348 2.477498241e-12 -0.0229808672)
(-0.0002277412304 2.477526431e-12 -0.02298138741)
(-0.0002000272111 2.477561125e-12 -0.02298202131)
(-0.0001684085853 2.477600156e-12 -0.02298274451)
(-0.0001341006731 2.477643091e-12 -0.02298352922)
(-9.842148511e-05 2.477687326e-12 -0.0229843453)
(-6.274229711e-05 2.477731562e-12 -0.02298516138)
(-2.843438498e-05 2.477774496e-12 -0.02298594609)
(3.18424084e-06 2.477813527e-12 -0.02298666929)
(3.089826013e-05 2.477848222e-12 -0.02298730318)
(5.364236455e-05 2.477876411e-12 -0.0229878234)
(7.054281837e-05 2.477897228e-12 -0.02298820996)
(8.094992069e-05 2.477910347e-12 -0.022988448)
(8.446406656e-05 2.477914669e-12 -0.02298852837)
(8.094992068e-05 2.477910347e-12 -0.022988448)
(7.054281835e-05 2.477897228e-12 -0.02298820996)
(5.364236451e-05 2.477876411e-12 -0.0229878234)
(3.089826009e-05 2.477848222e-12 -0.02298730318)
(3.184240791e-06 2.477813527e-12 -0.02298666929)
(-2.843438503e-05 2.477774496e-12 -0.02298594609)
(-6.274229717e-05 2.477731562e-12 -0.02298516138)
(-9.842148517e-05 2.477687326e-12 -0.0229843453)
(-0.0001341006732 2.477643091e-12 -0.02298352922)
(-0.0001684085853 2.477600156e-12 -0.02298274451)
(-0.0002000272111 2.477561125e-12 -0.02298202131)
(-0.0002277412304 2.477526431e-12 -0.02298138741)
(-0.0002504853348 2.477498241e-12 -0.0229808672)
(-0.0002673857887 2.477476991e-12 -0.02298048064)
(-0.000277792891 2.477464306e-12 -0.0229802426)
(-0.0002854342461 2.813745826e-12 -0.02499812676)
(-0.0002819487676 2.813749993e-12 -0.02499820583)
(-0.0002716265631 2.813762244e-12 -0.02499843999)
(-0.0002548639778 2.813782627e-12 -0.02499882027)
(-0.0002323054125 2.813809515e-12 -0.02499933203)
(-0.0002048174754 2.813842041e-12 -0.02499995562)
(-0.0001734567843 2.813879338e-12 -0.02500066706)
(-0.0001394287453 2.813919237e-12 -0.02500143902)
(-0.0001040406168 2.813961737e-12 -0.02500224183)
(-6.865248827e-05 2.814004238e-12 -0.02500304464)
(-3.46244492e-05 2.814045004e-12 -0.02500381659)
(-3.263758112e-06 2.814082301e-12 -0.02500452804)
(2.422417899e-05 2.814114827e-12 -0.02500515162)
(4.678274422e-05 2.814141715e-12 -0.02500566339)
(6.35453295e-05 2.814161664e-12 -0.02500604366)
(7.386753397e-05 2.814173916e-12 -0.02500627783)
(7.735301255e-05 2.814178049e-12 -0.0250063569)
(7.386753396e-05 2.814173916e-12 -0.02500627783)
(6.354532948e-05 2.814161664e-12 -0.02500604366)
(4.678274418e-05 2.814141715e-12 -0.02500566339)
(2.422417895e-05 2.814114827e-12 -0.02500515162)
(-3.263758164e-06 2.814082301e-12 -0.02500452804)
(-3.462444926e-05 2.814045004e-12 -0.02500381659)
(-6.865248833e-05 2.814004238e-12 -0.02500304464)
(-0.0001040406168 2.813961737e-12 -0.02500224183)
(-0.0001394287453 2.813919237e-12 -0.02500143902)
(-0.0001734567844 2.813879338e-12 -0.02500066706)
(-0.0002048174755 2.813842041e-12 -0.02499995562)
(-0.0002323054126 2.813809515e-12 -0.02499933203)
(-0.0002548639778 2.813782627e-12 -0.02499882027)
(-0.0002716265631 2.813762244e-12 -0.02499843999)
(-0.0002819487676 2.813749993e-12 -0.02499820583)
(-0.000288726618 3.179686483e-12 -0.02699918796)
(-0.0002852711135 3.179690452e-12 -0.02699926567)
(-0.0002750376768 3.179701944e-12 -0.02699949583)
(-0.0002584192445 3.17972081e-12 -0.02699986959)
(-0.000236054676 3.179746397e-12 -0.02700037258)
(-0.0002088031266 3.179777188e-12 -0.02700098548)
(-0.0001777121278 3.179812316e-12 -0.02700168474)
(-0.0001439767193 3.179849613e-12 -0.02700244346)
(-0.0001088929178 3.179889511e-12 -0.02700323252)
(-7.380911628e-05 3.17992941e-12 -0.02700402157)
(-4.007370784e-05 3.179967574e-12 -0.0270047803)
(-8.982709005e-06 3.180002702e-12 -0.02700547956)
(1.826884033e-05 3.180033493e-12 -0.02700609246)
(4.063340887e-05 3.180059081e-12 -0.02700659545)
(5.725184109e-05 3.180077512e-12 -0.02700696921)
(6.74852778e-05 3.180089221e-12 -0.02700719937)
(7.094078234e-05 3.180093053e-12 -0.02700727708)
(6.748527778e-05 3.180089221e-12 -0.02700719937)
(5.725184107e-05 3.180077512e-12 -0.02700696921)
(4.063340883e-05 3.180059081e-12 -0.02700659545)
(1.826884028e-05 3.180033493e-12 -0.02700609246)
(-8.982709062e-06 3.180002702e-12 -0.02700547956)
(-4.00737079e-05 3.179967574e-12 -0.0270047803)
(-7.380911635e-05 3.17992941e-12 -0.02700402157)
(-0.0001088929179 3.179889511e-12 -0.02700323252)
(-0.0001439767194 3.179849613e-12 -0.02700244346)
(-0.0001777121278 3.179812316e-12 -0.02700168474)
(-0.0002088031267 3.179777188e-12 -0.02700098548)
(-0.000236054676 3.179746397e-12 -0.02700037258)
(-0.0002584192445 3.17972081e-12 -0.02699986959)
(-0.0002750376768 3.179701944e-12 -0.02699949583)
(-0.0002852711135 3.179690452e-12 -0.02699926567)
(-0.0002911758657 3.577985325e-12 -0.02898267593)
(-0.0002877513494 3.577989034e-12 -0.02898275226)
(-0.0002776096841 3.577999659e-12 -0.02898297831)
(-0.0002611402826 3.578017223e-12 -0.02898334539)
(-0.000238976275 3.578040642e-12 -0.02898383939)
(-0.0002119691121 3.578069264e-12 -0.02898444135)
(-0.0001811569311 3.578101791e-12 -0.02898512811)
(-0.000147724055 3.578137786e-12 -0.02898587329)
(-0.0001129548779 3.578174215e-12 -0.02898664825)
(-7.81857009e-05 3.578210644e-12 -0.0289874232)
(-4.475282482e-05 3.57824664e-12 -0.02898816838)
(-1.394064381e-05 3.578279166e-12 -0.02898885514)
(1.306651911e-05 3.578307789e-12 -0.0289894571)
(3.523052668e-05 3.578331208e-12 -0.0289899511)
(5.169992815e-05 3.578348772e-12 -0.02899031818)
(6.184159345e-05 3.578359397e-12 -0.02899054423)
(6.526610972e-05 3.578363027e-12 -0.02899062056)
(6.184159343e-05 3.578359397e-12 -0.02899054423)
(5.169992812e-05 3.578348772e-12 -0.02899031818)
(3.523052664e-05 3.578331208e-12 -0.0289899511)
(1.306651905e-05 3.578307789e-12 -0.0289894571)
(-1.394064387e-05 3.578279166e-12 -0.02898885514)
(-4.475282489e-05 3.57824664e-12 -0.02898816838)
(-7.818570097e-05 3.578210644e-12 -0.0289874232)
(-0.000112954878 3.578174215e-12 -0.02898664825)
(-0.0001477240551 3.578137786e-12 -0.02898587329)
(-0.0001811569311 3.578101791e-12 -0.02898512811)
(-0.0002119691121 3.578069264e-12 -0.02898444135)
(-0.0002389762751 3.578040642e-12 -0.02898383939)
(-0.0002611402826 3.578017223e-12 -0.02898334539)
(-0.0002776096841 3.577999659e-12 -0.02898297831)
(-0.0002877513494 3.577989034e-12 -0.02898275226)
(-0.0002927830899 4.011380199e-12 -0.03094809438)
(-0.0002893902665 4.011383565e-12 -0.0309481693)
(-0.0002793424593 4.011393431e-12 -0.03094839118)
(-0.0002630254772 4.01140926e-12 -0.03094875149)
(-0.0002410665909 4.011430511e-12 -0.03094923639)
(-0.0002143093712 4.011456965e-12 -0.03094982725)
(-0.0001837823477 4.011486889e-12 -0.03095050136)
(-0.0001506588829 4.011518548e-12 -0.0309512328)
(-0.0001162114842 4.011552375e-12 -0.03095199347)
(-8.176408556e-05 4.011586202e-12 -0.03095275415)
(-4.864062078e-05 4.011618728e-12 -0.03095348558)
(-1.811359732e-05 4.011648652e-12 -0.03095415969)
(8.643622364e-06 4.011675107e-12 -0.03095475055)
(3.060250866e-05 4.011696357e-12 -0.03095523545)
(4.691949073e-05 4.01171262e-12 -0.03095559576)
(5.696729794e-05 4.011722486e-12 -0.03095581764)
(6.036012133e-05 4.011725772e-12 -0.03095589256)
(5.696729792e-05 4.011722486e-12 -0.03095581764)
(4.69194907e-05 4.01171262e-12 -0.03095559576)
(3.060250862e-05 4.011696357e-12 -0.03095523545)
(8.643622306e-06 4.011675107e-12 -0.03095475055)
(-1.811359738e-05 4.011648652e-12 -0.03095415969)
(-4.864062085e-05 4.011618728e-12 -0.03095348558)
(-8.176408564e-05 4.011586202e-12 -0.03095275415)
(-0.0001162114843 4.011552375e-12 -0.03095199347)
(-0.000150658883 4.011518548e-12 -0.0309512328)
(-0.0001837823478 4.011486889e-12 -0.03095050136)
(-0.0002143093712 4.011456965e-12 -0.03094982725)
(-0.0002410665909 4.011430511e-12 -0.03094923639)
(-0.0002630254772 4.01140926e-12 -0.03094875149)
(-0.0002793424593 4.011393431e-12 -0.03094839118)
(-0.0002893902665 4.011383565e-12 -0.0309481693)
(-0.0002935587507 4.482639848e-12 -0.03289512954)
(-0.0002901980011 4.482642881e-12 -0.03289520305)
(-0.0002802451802 4.482651663e-12 -0.03289542075)
(-0.0002640824497 4.482665975e-12 -0.03289577428)
(-0.0002423311504 4.482685056e-12 -0.03289625005)
(-0.0002158268784 4.482708475e-12 -0.03289682979)
(-0.0001855884402 4.482735363e-12 -0.0328974912)
(-0.000152778106 4.482763986e-12 -0.03289820887)
(-0.0001186563536 4.482794344e-12 -0.03289895522)
(-8.453460129e-05 4.482824702e-12 -0.03289970158)
(-5.172426711e-05 4.482854192e-12 -0.03290041925)
(-2.148582895e-05 4.48288108e-12 -0.03290108066)
(5.018443035e-06 4.482904499e-12 -0.03290166039)
(2.676974238e-05 4.482923581e-12 -0.03290213617)
(4.293247288e-05 4.482938326e-12 -0.0329024897)
(5.288529377e-05 4.482947108e-12 -0.0329027074)
(5.624604332e-05 4.482950064e-12 -0.03290278091)
(5.288529375e-05 4.482947108e-12 -0.0329027074)
(4.293247284e-05 4.482938326e-12 -0.0329024897)
(2.676974233e-05 4.482923581e-12 -0.03290213617)
(5.018442972e-06 4.482904499e-12 -0.03290166039)
(-2.148582902e-05 4.48288108e-12 -0.03290108066)
(-5.172426719e-05 4.482854192e-12 -0.03290041925)
(-8.453460138e-05 4.482824702e-12 -0.03289970158)
(-0.0001186563537 4.482794344e-12 -0.03289895522)
(-0.0001527781061 4.482763986e-12 -0.03289820887)
(-0.0001855884403 4.482735363e-12 -0.0328974912)
(-0.0002158268784 4.482708475e-12 -0.03289682979)
(-0.0002423311504 4.482685056e-12 -0.03289625005)
(-0.0002640824498 4.482665975e-12 -0.03289577428)
(-0.0002802451803 4.482651663e-12 -0.03289542075)
(-0.0002901980012 4.482642881e-12 -0.03289520305)
(-0.0002935224934 4.994559495e-12 -0.03482365727)
(-0.0002901938646 4.994562164e-12 -0.03482372938)
(-0.000280336169 4.994569645e-12 -0.03482394294)
(-0.0002643279156 4.994582005e-12 -0.03482428974)
(-0.0002427845069 4.994598918e-12 -0.03482475646)
(-0.0002165335526 4.994619735e-12 -0.03482532516)
(-0.0001865841219 4.994643154e-12 -0.03482597398)
(-0.0001540873764 4.994668741e-12 -0.03482667799)
(-0.0001202917467 4.994695629e-12 -0.03482741014)
(-8.649611702e-05 4.994722518e-12 -0.03482814229)
(-5.399937149e-05 4.994747237e-12 -0.0348288463)
(-2.404994078e-05 4.994770656e-12 -0.03482949513)
(2.201013488e-06 4.994791473e-12 -0.03483006383)
(2.374442221e-05 4.994808386e-12 -0.03483053054)
(3.97526755e-05 4.994820746e-12 -0.03483087735)
(4.961037113e-05 4.994828661e-12 -0.0348310909)
(5.293899992e-05 4.994831249e-12 -0.03483116301)
(4.961037111e-05 4.994828661e-12 -0.0348310909)
(3.975267547e-05 4.994820746e-12 -0.03483087735)
(2.374442216e-05 4.994808386e-12 -0.03483053054)
(2.20101342e-06 4.994791473e-12 -0.03483006383)
(-2.404994086e-05 4.994770656e-12 -0.03482949513)
(-5.399937158e-05 4.994747237e-12 -0.0348288463)
(-8.649611712e-05 4.994722518e-12 -0.03482814229)
(-0.0001202917468 4.994695629e-12 -0.03482741014)
(-0.0001540873765 4.994668741e-12 -0.03482667799)
(-0.000186584122 4.994643154e-12 -0.03482597398)
(-0.0002165335527 4.994619735e-12 -0.03482532516)
(-0.000242784507 4.994598918e-12 -0.03482475646)
(-0.0002643279157 4.994582005e-12 -0.03482428974)
(-0.000280336169 4.994569645e-12 -0.03482394294)
(-0.0002901938646 4.994562164e-12 -0.03482372938)
(-0.0002927028425 5.549955559e-12 -0.03673374793)
(-0.0002894060408 5.549957846e-12 -0.03673381867)
(-0.0002796426008 5.549964351e-12 -0.03673402816)
(-0.0002637874125 5.549974976e-12 -0.03673436836)
(-0.0002424499939 5.549989288e-12 -0.03673482619)
(-0.0002164500416 5.550006635e-12 -0.03673538407)
(-0.0001867869763 5.550026584e-12 -0.03673602054)
(-0.0001546009526 5.550048268e-12 -0.03673671114)
(-0.0001211284643 5.55007082e-12 -0.03673742935)
(-8.765597593e-05 5.550093371e-12 -0.03673814756)