/*--------------------------------*- C++ -*----------------------------------*\
| =========                 |                                                 |
| \\      /  F ield         | OpenFOAM: The Open Source CFD Toolbox           |
|  \\    /   O peration     | Version:  2312                                  |
|   \\  /    A nd           | Website:  www.openfoam.com                      |
|    \\/     M anipulation  |                                                 |
\*---------------------------------------------------------------------------*/
FoamFile
{
    version     2.0;
    format      ascii;
    arch        "LSB;label=32;scalar=64";
    class       surfaceVectorField;
    location    "0.16/beam";
    object      Q;
}
// * * * * * * * * * * * * * * * * * * * * * * * * * * * * * * * * * * * * * //

dimensions      [1 1 -2 0 0 0 0];

oriented        oriented;

internalField   nonuniform List<vector> 
59
(
(0.137272475 5.366125517e-13 -0.006593054399)
(0.1372726127 5.474080887e-13 -0.006584864849)
(0.1372728409 5.654397318e-13 -0.006571281574)
(0.1372731574 5.907646674e-13 -0.006552404367)
(0.1372735591 6.23460172e-13 -0.006528374486)
(0.1372740422 6.636210221e-13 -0.006499375969)
(0.1372746014 7.113564245e-13 -0.006465636976)
(0.1372752307 7.667866309e-13 -0.006427430982)
(0.1372759228 8.300394059e-13 -0.006385077563)
(0.1372766692 9.0124651e-13 -0.00633894257)
(0.1372774602 9.805403336e-13 -0.006289437487)
(0.1372782852 1.068050783e-12 -0.00623701782)
(0.1372791321 1.163902476e-12 -0.0061821804)
(0.1372799882 1.268212248e-12 -0.00612545957)
(0.1372808396 1.38108692e-12 -0.006067422274)
(0.1372816718 1.502621225e-12 -0.006008662154)
(0.1372824699 1.632895797e-12 -0.005949792802)
(0.1372832184 1.771974875e-12 -0.005891440364)
(0.1372839019 1.919903613e-12 -0.005834235725)
(0.1372845048 2.076704816e-12 -0.005778806463)
(0.137285012 2.242374703e-12 -0.005725768761)
(0.1372854088 2.416877511e-12 -0.005675719348)
(0.1372856812 2.600117476e-12 -0.005629232537)
(0.1372858161 2.792036319e-12 -0.005586826859)
(0.1372858015 2.992367959e-12 -0.005549011127)
(0.137285627 3.200953802e-12 -0.005516204774)
(0.1372852839 3.417366874e-12 -0.005488795822)
(0.1372847655 3.641273042e-12 -0.005467070198)
(0.1372840681 3.87202372e-12 -0.005451247935)
(0.137283191 4.109043816e-12 -0.005441429256)
(0.1372821376 4.35140026e-12 -0.005437607305)
(0.1372809156 4.598218632e-12 -0.005439634549)
(0.1372795383 4.848240519e-12 -0.00544721556)
(0.1372780243 5.100272771e-12 -0.005459900324)
(0.137276399 5.352752021e-12 -0.005477067417)
(0.1372746927 5.604229463e-12 -0.005497953343)
(0.1372729429 5.852960946e-12 -0.00552164165)
(0.1372711897 6.097420853e-12 -0.005547135405)
(0.1372694771 6.335924267e-12 -0.00557336618)
(0.1372678478 6.567141473e-12 -0.00559930582)
(0.1372663426 6.789731429e-12 -0.005623996393)
(0.1372649943 7.002796534e-12 -0.00564667708)
(0.1372638267 7.205472846e-12 -0.005666814068)
(0.1372628501 7.397241573e-12 -0.005684197602)
(0.1372620614 7.577409017e-12 -0.005698932691)
(0.1372614429 7.745210493e-12 -0.005711459195)
(0.1372609655 7.899161276e-12 -0.005722471296)
(0.1372605921 8.036978601e-12 -0.005732847658)
(0.1372602831 8.154912765e-12 -0.005743510796)
(0.137260002 8.247656273e-12 -0.005755317236)
(0.1372597205 8.307927267e-12 -0.005768923286)
(0.1372594218 8.326643232e-12 -0.005784728609)
(0.1372591019 8.293115452e-12 -0.005802825051)
(0.1372587679 8.195718783e-12 -0.00582305363)
(0.1372584356 8.022952905e-12 -0.005845044477)
(0.1372581245 7.764565132e-12 -0.005868348481)
(0.137257855 7.413338259e-12 -0.005892490438)
(0.137257644 6.965949212e-12 -0.005917081113)
(0.1372575046 6.424175251e-12 -0.005941813449)
)
;

boundaryField
{
    left
    {
        type            calculated;
        value           uniform (-0.1372724289 -7.344807938e-12 0.006595790815);
    }
    right
    {
        type            calculated;
        value           uniform (0.1372574444 -1.018286343e-12 -0.005966520894);
    }
    beam
    {
        type            empty;
        value           nonuniform List<vector> 0();
    }
}


// ************************************************************************* //
