/*--------------------------------*- C++ -*----------------------------------*\
| =========                 |                                                 |
| \\      /  F ield         | OpenFOAM: The Open Source CFD Toolbox           |
|  \\    /   O peration     | Version:  2312                                  |
|   \\  /    A nd           | Website:  www.openfoam.com                      |
|    \\/     M anipulation  |                                                 |
\*---------------------------------------------------------------------------*/
FoamFile
{
    version     2.0;
    format      ascii;
    arch        "LSB;label=32;scalar=64";
    class       volVectorField;
    location    "0.16/beam";
    object      Theta;
}
// * * * * * * * * * * * * * * * * * * * * * * * * * * * * * * * * * * * * * //

dimensions      [0 0 0 0 0 0 0];

internalField   nonuniform List<vector> 
60
(
(-4.75178746e-14 0.04788142094 4.133731026e-12)
(-4.668617955e-14 0.04784455649 4.187332718e-12)
(-4.502698605e-14 0.04776745888 4.294200244e-12)
(-4.255001394e-14 0.04765290786 4.454624623e-12)
(-3.926985923e-14 0.04750048154 4.669031112e-12)
(-3.520603533e-14 0.04731216125 4.937964953e-12)
(-3.038310864e-14 0.04708898872 5.262074119e-12)
(-2.483103991e-14 0.04683307735 5.642086045e-12)
(-1.85853554e-14 0.04654641705 6.078789605e-12)
(-1.16877814e-14 0.04623159299 6.573008379e-12)
(-4.186819671e-15 0.04589135226 7.125579487e-12)
(3.861844692e-15 0.04552885112 7.737334189e-12)
(1.239464679e-14 0.04514748473 8.409076781e-12)
(2.13396662e-14 0.04475095541 9.141565649e-12)
(3.061643236e-14 0.04434318663 9.935498029e-12)
(4.013597018e-14 0.04392831815 1.079149445e-11)
(4.980118558e-14 0.04351064228 1.17100892e-11)
(5.950761617e-14 0.04309456664 1.269169114e-11)
(6.914484954e-14 0.04268455412 1.373660165e-11)
(7.859780773e-14 0.0422850713 1.484496327e-11)
(8.774887726e-14 0.04190052853 1.601674181e-11)
(9.648006725e-14 0.04153522291 1.725169219e-11)
(1.046748431e-13 0.04119329641 1.854923304e-11)
(1.122221104e-13 0.04087859964 1.990869702e-11)
(1.190163459e-13 0.04059474441 2.132881861e-11)
(1.249603775e-13 0.04034495754 2.280795305e-11)
(1.299681037e-13 0.04013202758 2.434390652e-11)
(1.339643944e-13 0.03995822445 2.593386082e-11)
(1.36887549e-13 0.03982521103 2.757423009e-11)
(1.386884101e-13 0.03973394814 2.926062922e-11)
(1.393342433e-13 0.03968459563 3.098774401e-11)
(1.387984237e-13 0.03967641682 3.274918063e-11)
(1.370739449e-13 0.03970769517 3.453759963e-11)
(1.341623889e-13 0.03977567753 3.634464997e-11)
(1.30076628e-13 0.03987655889 3.816102449e-11)
(1.248376229e-13 0.0400055272 3.997667755e-11)
(1.184742771e-13 0.0401568834 4.178103735e-11)
(1.110193725e-13 0.04032424963 4.356334402e-11)
(1.02507924e-13 0.04050086889 4.531300444e-11)
(9.297051341e-14 0.04067998917 4.701996854e-11)
(8.2427169e-14 0.04085530922 4.86750276e-11)
(7.087332799e-14 0.041021449 5.026996464e-11)
(5.826202257e-14 0.04117439151 5.179744251e-11)
(4.447244077e-14 0.041311838 5.32505371e-11)
(2.926777699e-14 0.0414334101 5.46218305e-11)
(1.223198585e-14 0.04154065845 5.590203473e-11)
(-7.308689231e-15 0.04163683491 5.707818673e-11)
(-3.038250466e-14 0.041726465 5.813156127e-11)
(-5.846251369e-14 0.04181471902 5.903556493e-11)
(-9.352062036e-14 0.04190674939 5.975401078e-11)
(-1.379578004e-13 0.04200696071 6.024031552e-11)
(-1.942956315e-13 0.04211855527 6.043828463e-11)
(-2.644276716e-13 0.04224303797 6.028533376e-11)
(-3.482177651e-13 0.04238035907 5.97192457e-11)
(-4.412711323e-13 0.04252853381 5.869004021e-11)
(-5.320342198e-13 0.04268441519 5.71794965e-11)
(-5.991253139e-13 0.04284227273 5.523283797e-11)
(-6.110668045e-13 0.04299484589 5.301099625e-11)
(-5.311240753e-13 0.0431275332 5.088002944e-11)
(-3.229839414e-13 0.04321858818 4.95708624e-11)
)
;

boundaryField
{
    left
    {
        type            momentBeamRotationNR;
        value           uniform (-4.75178746e-14 0.04788142094 4.133731026e-12);
        momentSeries    
{
        file            "$FOAM_CASE/constant/beam/timeVsMoment";
        outOfBounds     clamp;
}
        moment          uniform (0 0 0);
    }
    right
    {
        type            momentBeamRotationNR;
        value           uniform (-3.229839414e-13 0.04321858818 4.95708624e-11);
        momentSeries    
{
        file            "$FOAM_CASE/constant/beam/timeVsMoment";
        outOfBounds     clamp;
}
        moment          uniform (0 0 0);
    }
    beam
    {
        type            empty;
    }
}


// ************************************************************************* //
