/*--------------------------------*- C++ -*----------------------------------*\
| =========                 |                                                 |
| \\      /  F ield         | OpenFOAM: The Open Source CFD Toolbox           |
|  \\    /   O peration     | Version:  2312                                  |
|   \\  /    A nd           | Website:  www.openfoam.com                      |
|    \\/     M anipulation  |                                                 |
\*---------------------------------------------------------------------------*/
FoamFile
{
    version     2.0;
    format      ascii;
    arch        "LSB;label=32;scalar=64";
    class       volVectorField;
    location    "0.16/beam";
    object      W;
}
// * * * * * * * * * * * * * * * * * * * * * * * * * * * * * * * * * * * * * //

dimensions      [0 1 0 0 0 0 0];

internalField   nonuniform List<vector> 
60
(
(-5.264930191e-06 8.95439877e-14 -0.001061485004)
(-1.575325859e-05 2.677991932e-13 -0.003183588405)
(-2.611740648e-05 4.495596169e-13 -0.005303098459)
(-3.627596185e-05 6.371737939e-13 -0.007418307926)
(-4.61495668e-05 8.330074645e-13 -0.00952754225)
(-5.566173207e-05 1.039449646e-12 -0.01162917301)
(-6.473963828e-05 1.258917976e-12 -0.01372163167)
(-7.331491921e-05 1.493863144e-12 -0.01580342368)
(-8.132441508e-05 1.746772336e-12 -0.01787314275)
(-8.871088674e-05 2.02017169e-12 -0.01992948527)
(-9.542367556e-05 2.316627582e-12 -0.02197126476)
(-0.0001014192947 2.638746991e-12 -0.02399742584)
(-0.0001066619389 2.989176884e-12 -0.02600705781)
(-0.0001111238968 3.370602652e-12 -0.02799940722)
(-0.0001147858591 3.785745699e-12 -0.02997388927)
(-0.0001176371094 4.237360271e-12 -0.03193009767)
(-0.000119675598 4.728229641e-12 -0.03386781277)
(-0.0001209078955 5.261161103e-12 -0.03578700751)
(-0.0001213490331 5.838980425e-12 -0.03768785119)
(-0.0001210222342 6.464525423e-12 -0.0395707108)
(-0.0001199585515 7.140637906e-12 -0.04143614991)
(-0.0001181964189 7.870154338e-12 -0.04328492486)
(-0.0001157812667 8.655850115e-12 -0.04511787495)
(-0.0001127644621 9.500596743e-12 -0.04693632906)
(-0.0001092032274 1.040710635e-11 -0.04874146645)
(-0.0001051598467 1.137804122e-11 -0.05053472692)
(-0.000100700592 1.241600293e-11 -0.05231767813)
(-9.589531324e-05 1.352344533e-11 -0.05409200447)
(-9.08161962e-05 1.470270393e-11 -0.05585947352)
(-8.553704016e-05 1.59558954e-11 -0.05762191411)
(-8.0131917e-05 1.728494378e-11 -0.05938117764)
(-7.467404986e-05 1.869146634e-11 -0.0611391042)
(-6.923431402e-05 2.017679637e-11 -0.06289747897)
(-6.387969631e-05 2.174186828e-11 -0.06465798797)
(-5.867167955e-05 2.338724405e-11 -0.06642217297)
(-5.3664441e-05 2.511300323e-11 -0.06819138329)
(-4.890337524e-05 2.691878709e-11 -0.06996673775)
(-4.442346703e-05 2.880371118e-11 -0.071749085)
(-4.024847212e-05 3.076643793e-11 -0.07353898598)
(-3.639015029e-05 3.280512375e-11 -0.07533669911)
(-3.284875401e-05 3.491752207e-11 -0.07714219728)
(-2.961378642e-05 3.710096033e-11 -0.0789551912)
(-2.666618895e-05 3.93524514e-11 -0.08077518692)
(-2.398076961e-05 4.166866506e-11 -0.08260154748)
(-2.152972767e-05 4.404599245e-11 -0.08443357952)
(-1.928596638e-05 4.648044447e-11 -0.0862706131)
(-1.722668015e-05 4.896759103e-11 -0.08811208689)
(-1.533598746e-05 5.150231311e-11 -0.08995760978)
(-1.360694726e-05 5.407855879e-11 -0.09180700727)
(-1.204206205e-05 5.668893138e-11 -0.09366033156)
(-1.065280982e-05 5.932429641e-11 -0.09551784849)
(-9.457733986e-06 6.19733247e-11 -0.09737999009)
(-8.480020308e-06 6.462215449e-11 -0.09924729525)
(-7.74426897e-06 6.725422013e-11 -0.1011203319)
(-7.273561237e-06 6.985042474e-11 -0.1029996268)
(-7.086136012e-06 7.238991931e-11 -0.104885588)
(-7.192321843e-06 7.485174583e-11 -0.1067784342)
(-7.589783385e-06 7.721813145e-11 -0.1086780864)
(-8.255957719e-06 7.948036675e-11 -0.1105839969)
(-9.132386143e-06 8.164992059e-11 -0.1124947915)
)
;

boundaryField
{
    left
    {
        type            fixedValue;
        value           uniform (0 0 0);
    }
    right
    {
        type            fixedValue;
        value           uniform (-9.613054863e-06 8.271374197e-11 -0.1134512822);
    }
    beam
    {
        type            empty;
    }
}


// ************************************************************************* //
