/*--------------------------------*- C++ -*----------------------------------*\
| =========                 |                                                 |
| \\      /  F ield         | OpenFOAM: The Open Source CFD Toolbox           |
|  \\    /   O peration     | Version:  2312                                  |
|   \\  /    A nd           | Website:  www.openfoam.com                      |
|    \\/     M anipulation  |                                                 |
\*---------------------------------------------------------------------------*/
FoamFile
{
    version     2.0;
    format      ascii;
    arch        "LSB;label=32;scalar=64";
    class       volScalarField;
    location    "0.15";
    object      p;
}
// * * * * * * * * * * * * * * * * * * * * * * * * * * * * * * * * * * * * * //

dimensions      [1 -1 -2 0 0 0 0];

internalField   nonuniform List<scalar> 
299556
(
19.37475377
19.37476133
19.37476894
19.37477665
19.37478447
19.37479244
19.37480061
19.37480901
19.37481766
19.37482661
19.37483589
19.37484554
19.3748556
19.37486609
19.37487706
19.37488854
19.37490057
19.37491317
19.37492639
19.37494026
19.3749548
19.37497005
19.37498603
19.37500277
19.37502029
19.37503861
19.37505773
19.37507767
19.37509843
19.37512
19.37514238
19.37516553
19.37518945
19.37521407
19.37523937
19.37526528
19.37529172
19.37531862
19.37534588
19.37537339
19.37540103
19.37542867
19.37545617
19.37548336
19.37551008
19.37553615
19.3755614
19.37558562
19.37560864
19.37563026
19.37565027
19.37566851
19.37568477
19.37569891
19.37571075
19.37572016
19.375727
19.37573118
19.37573262
19.37573124
19.37572702
19.37571994
19.37571003
19.37569731
19.37568184
19.37566371
19.37564301
19.37561986
19.37559439
19.37556674
19.37553706
19.3755055
19.37547223
19.37543739
19.37540116
19.37536367
19.37532507
19.37528551
19.37524511
19.37520399
19.37516225
19.37512001
19.37507733
19.37503431
19.374991
19.37494748
19.37490377
19.37485994
19.37481601
19.37477202
19.37476125
19.37478385
19.3748066
19.37482961
19.37485297
19.37487681
19.37490121
19.37492629
19.37495214
19.37497888
19.37500662
19.37503545
19.37506549
19.37509684
19.37512962
19.37516392
19.37519985
19.37523751
19.37527701
19.37531844
19.3753619
19.37540746
19.37545522
19.37550524
19.37555759
19.37561232
19.37566947
19.37572906
19.37579109
19.37585556
19.37592243
19.37599164
19.37606311
19.37613672
19.37621233
19.37628976
19.37636881
19.37644921
19.3765307
19.37661294
19.37669558
19.37677822
19.37686042
19.37694172
19.37702162
19.37709959
19.37717508
19.37724754
19.37731637
19.37738101
19.37744089
19.37749542
19.37754409
19.37758637
19.37762179
19.37764993
19.37767042
19.37768293
19.37768724
19.37768313
19.37767052
19.37764937
19.37761972
19.37758169
19.37753544
19.37748122
19.37741933
19.37735011
19.37727395
19.37719127
19.37710253
19.37700817
19.37690869
19.37680454
19.37669621
19.37658413
19.37646876
19.37635049
19.37622972
19.3761068
19.37598205
19.37585577
19.37572823
19.37559964
19.37547021
19.37534012
19.37520951
19.37507851
19.37494724
19.37481579
19.37476866
19.37480616
19.3748439
19.37488208
19.37492085
19.37496039
19.37500088
19.37504249
19.37508539
19.37512976
19.37517578
19.37522362
19.37527346
19.37532549
19.37537987
19.37543678
19.3754964
19.3755589
19.37562444
19.37569318
19.37576529
19.3758409
19.37592015
19.37600316
19.37609004
19.37618086
19.37627569
19.37637458
19.37647754
19.37658453
19.37669552
19.37681039
19.37692901
19.37705119
19.37717669
19.37730523
19.37743644
19.37756993
19.37770521
19.37784175
19.37797895
19.37811616
19.37825265
19.37838765
19.37852033
19.37864981
19.37877519
19.37889552
19.37900985
19.37911722
19.37921667
19.37930726
19.37938811
19.37945835
19.37951721
19.37956397
19.37959801
19.37961882
19.37962599
19.37961919
19.37959826
19.37956315
19.37951392
19.37945076
19.37937396
19.37928393
19.37918115
19.3790662
19.37893973
19.37880244
19.37865507
19.3784984
19.37833321
19.3781603
19.37798042
19.37779435
19.3776028
19.37740646
19.37720597
19.37700192
19.37679485
19.37658524
19.37637353
19.37616009
19.37594527
19.37572935
19.37551257
19.37529516
19.37507731
19.37485917
19.37477596
19.37482812
19.37488063
19.37493374
19.37498768
19.37504269
19.37509901
19.3751569
19.37521658
19.37527831
19.37534233
19.37540888
19.37547822
19.3755506
19.37562626
19.37570544
19.37578838
19.37587533
19.37596652
19.37606217
19.3761625
19.3762677
19.37637797
19.37649348
19.37661436
19.37674074
19.37687271
19.37701032
19.37715359
19.3773025
19.37745695
19.37761683
19.37778193
19.377952
19.3781267
19.37830562
19.37848828
19.37867411
19.37886246
19.37905257
19.37924361
19.37943467
19.37962475
19.37981276
19.37999754
19.38017789
19.38035253
19.38052016
19.38067944
19.38082902
19.38096759
19.38109382
19.38120648
19.38130438
19.38138641
19.3814516
19.38149907
19.38152809
19.38153812
19.38152868
19.38149955
19.38145067
19.38138212
19.38129416
19.3811872
19.3810618
19.38091865
19.38075855
19.38058241
19.3803912
19.38018597
19.37996779
19.37973776
19.37949697
19.37924651
19.37898743
19.37872074
19.37844739
19.37816827
19.37788421
19.37759596
19.37730418
19.3770095
19.37671242
19.37641342
19.37611291
19.37581121
19.37550865
19.37520547
19.37490191
19.3747831
19.3748496
19.37491656
19.37498427
19.37505304
19.37512318
19.375195
19.3752688
19.3753449
19.37542361
19.37550524
19.3755901
19.37567852
19.37577081
19.37586728
19.37596824
19.37607402
19.3761849
19.37630118
19.37642316
19.3765511
19.37668527
19.3768259
19.3769732
19.37712738
19.37728857
19.37745689
19.37763242
19.37781518
19.37800513
19.37820217
19.37840614
19.37861678
19.37883377
19.37905668
19.379285
19.3795181
19.37975526
19.37999565
19.3802383
19.38048217
19.38072608
19.38096875
19.3812088
19.38144475
19.38167505
19.38189809
19.38211219
19.38231563
19.38250672
19.38268374
19.38284503
19.38298899
19.38311409
19.38321894
19.38330227
19.38336297
19.38340011
19.38341298
19.38340098
19.38336383
19.38330144
19.38321393
19.38310162
19.38296505
19.38280492
19.38262213
19.3824177
19.38219279
19.38194865
19.38168661
19.38140805
19.38111438
19.38080699
19.38048727
19.38015657
19.37981618
19.3794673
19.37911109
19.3787486
19.37838077
19.37800847
19.37763246
19.37725344
19.37687197
19.37648858
19.3761037
19.37571773
19.37533098
19.37494377
19.37479004
19.37487047
19.37495146
19.37503336
19.37511654
19.37520138
19.37528825
19.37537752
19.37546957
19.37556477
19.37566351
19.37576617
19.37587312
19.37598476
19.37610146
19.37622359
19.37635155
19.37648568
19.37662636
19.37677393
19.37692872
19.37709104
19.37726119
19.37743943
19.37762597
19.37782102
19.37802471
19.37823712
19.3784583
19.37868819
19.37892667
19.37917355
19.37942853
19.3796912
19.37996107
19.3802375
19.38051975
19.38080693
19.38109804
19.38139193
19.38168731
19.38198276
19.38227674
19.38256758
19.38285348
19.38313256
19.38340287
19.38366236
19.38390897
19.38414062
19.38435525
19.38455082
19.3847254
19.38487713
19.38500432
19.38510542
19.3851791
19.38522421
19.38523991
19.38522545
19.3851805
19.38510494
19.38499893
19.38486286
19.38469738
19.38450336
19.38428187
19.38403416
19.38376164
19.38346584
19.38314836
19.38281089
19.38245513
19.38208279
19.38169553
19.381295
19.38088276
19.38046028
19.38002895
19.37959003
19.37914469
19.37869396
19.37823878
19.37777996
19.37731822
19.37685416
19.37638833
19.37592118
19.37545311
19.3749845
19.37479673
19.3748906
19.37498512
19.3750807
19.37517779
19.37527681
19.37537819
19.37548238
19.37558982
19.37570093
19.37581618
19.375936
19.37606083
19.37619114
19.37632735
19.37646992
19.37661928
19.37677585
19.37694007
19.37711234
19.37729304
19.37748255
19.37768119
19.37788929
19.37810709
19.37833484
19.37857268
19.37882073
19.37907902
19.37934751
19.37962605
19.37991441
19.38021226
19.38051912
19.3808344
19.38115738
19.38148719
19.38182279
19.38216301
19.38250652
19.3828518
19.38319721
19.38354093
19.383881
19.38421535
19.38454176
19.38485794
19.3851615
19.38545003
19.38572109
19.38597226
19.38620116
19.38640551
19.38658315
19.38673209
19.38685051
19.38693683
19.38698974
19.38700823
19.38699142
19.38693894
19.38685064
19.3867267
19.3865676
19.38637408
19.38614718
19.38588815
19.38559846
19.38527977
19.38493387
19.38456265
19.38416807
19.38375213
19.38331684
19.38286415
19.38239599
19.38191418
19.38142044
19.38091639
19.38040353
19.37988319
19.3793566
19.37882485
19.37828887
19.37774951
19.37720747
19.37666339
19.37611778
19.37557113
19.37502386
19.37480313
19.37490987
19.37501733
19.37512602
19.37523641
19.37534899
19.37546428
19.37558275
19.3757049
19.37583125
19.3759623
19.37609854
19.3762405
19.37638867
19.37654357
19.3767057
19.37687555
19.37705362
19.37724039
19.37743631
19.37764183
19.37785737
19.37808332
19.37832002
19.37856779
19.37882687
19.37909746
19.37937967
19.37967355
19.37997905
19.38029601
19.38062418
19.38096316
19.38131244
19.38167133
19.38203902
19.38241451
19.38279664
19.38318407
19.38357528
19.38396856
19.38436203
19.38475362
19.3851411
19.3855221
19.38589411
19.38625449
19.38660054
19.3869295
19.38723858
19.38752501
19.38778609
19.3880192
19.38822188
19.38839184
19.38852701
19.3886256
19.38868608
19.38870731
19.38868829
19.38862858
19.38852804
19.38838685
19.38820557
19.38798506
19.38772649
19.3874313
19.38710119
19.38673804
19.38634389
19.38592093
19.38547138
19.38499754
19.38450169
19.38398608
19.38345288
19.38290418
19.38234196
19.38176805
19.38118415
19.38059179
19.37999237
19.3793871
19.37877707
19.37816323
19.37754637
19.37692722
19.37630636
19.37568433
19.3750616
19.3748092
19.37492815
19.3750479
19.37516902
19.37529203
19.3754175
19.37554596
19.37567799
19.37581412
19.37595493
19.37610097
19.37625281
19.37641101
19.37657615
19.37674879
19.37692948
19.3771188
19.37731727
19.37752545
19.37774383
19.37797293
19.37821321
19.37846509
19.37872898
19.37900522
19.37929408
19.37959579
19.37991048
19.38023821
19.38057891
19.38093243
19.38129848
19.38167661
19.38206626
19.38246668
19.38287695
19.38329598
19.38372246
19.3841549
19.38459161
19.38503068
19.38547001
19.3859073
19.38634006
19.38676563
19.38718122
19.38758387
19.38797056
19.3883382
19.38868367
19.38900387
19.38929577
19.38955645
19.38978314
19.38997327
19.39012453
19.3902349
19.39030268
19.39032659
19.3903055
19.39023893
19.39012672
19.38996907
19.38976661
19.3895203
19.38923148
19.38890175
19.38853301
19.38812738
19.38768716
19.38721478
19.38671275
19.38618364
19.38563
19.38505434
19.38445911
19.38384664
19.38321913
19.38257864
19.38192706
19.3812661
19.38059731
19.37992206
19.37924154
19.37855681
19.37786877
19.37717818
19.37648573
19.375792
19.37509751
19.37481491
19.37494533
19.37507664
19.37520944
19.37534432
19.37548189
19.37562275
19.37576752
19.37591679
19.37607119
19.37623133
19.37639783
19.37657132
19.37675241
19.37694173
19.37713989
19.37734751
19.37756518
19.37779349
19.37803301
19.37828429
19.37854785
19.37882414
19.37911362
19.37941666
19.37973356
19.38006459
19.38040987
19.38076948
19.38114337
19.38153134
19.38193309
19.38234815
19.38277588
19.38321548
19.38366594
19.38412606
19.38459442
19.38506938
19.38554908
19.38603144
19.38651415
19.38699467
19.38747028
19.38793806
19.38839491
19.38883761
19.38926282
19.38966714
19.39004713
19.39039939
19.39072055
19.39100741
19.39125691
19.39146622
19.3916328
19.39175441
19.39182917
19.39185566
19.39183267
19.39175964
19.39163639
19.39146318
19.39124067
19.39096996
19.39065248
19.39029004
19.38988473
19.3894389
19.38895506
19.38843592
19.38788423
19.38730284
19.38669455
19.38606213
19.38540828
19.38473555
19.38404638
19.38334302
19.38262755
19.38190185
19.38116761
19.38042634
19.37967935
19.37892778
19.37817261
19.3774147
19.37665478
19.37589347
19.37513134
19.37482022
19.37496132
19.37510337
19.37524703
19.37539295
19.37554178
19.37569417
19.37585079
19.37601228
19.37617933
19.37635258
19.37653272
19.37672043
19.37691636
19.3771212
19.37733561
19.37756026
19.3777958
19.37804285
19.37830205
19.37857398
19.37885921
19.37915824
19.37947154
19.37979954
19.38014258
19.38050091
19.38087471
19.38126404
19.38166885
19.38208896
19.38252401
19.38297352
19.3834368
19.38391298
19.38440097
19.38489947
19.38540696
19.38592167
19.38644158
19.38696443
19.38748772
19.38800871
19.38852445
19.38903176
19.38952729
19.39000754
19.39046888
19.39090762
19.39132002
19.39170236
19.39205103
19.39236249
19.39263345
19.39286082
19.39304182
19.39317402
19.39325538
19.39328436
19.39325962
19.39318057
19.39304702
19.39285924
19.39261796
19.39232437
19.39198006
19.39158697
19.3911474
19.3906639
19.39013921
19.38957628
19.38897811
19.38834778
19.38768835
19.38700284
19.38629417
19.38556511
19.38481831
19.38405621
19.38328106
19.38249491
19.38169957
19.38089668
19.38008765
19.37927373
19.37845596
19.37763525
19.3768124
19.37598808
19.37516289
19.3748251
19.374976
19.37512792
19.37528156
19.37543762
19.3755968
19.37575978
19.37592728
19.37610001
19.37627866
19.37646397
19.37665665
19.37685741
19.37706698
19.37728609
19.37751543
19.37775574
19.37800769
19.37827198
19.37854927
19.37884019
19.37914534
19.37946528
19.37980051
19.38015147
19.38051855
19.38090201
19.38130206
19.38171875
19.38215205
19.38260175
19.38306749
19.38354874
19.38404478
19.38455468
19.38507729
19.38561121
19.38615482
19.38670622
19.38726325
19.38782351
19.38838431
19.38894273
19.38949558
19.39003947
19.3905708
19.39108582
19.39158063
19.39205126
19.3924937
19.39290397
19.39327814
19.39361246
19.39390334
19.39414749
19.3943419
19.39448397
19.3945715
19.39460282
19.39457652
19.39449193
19.39434886
19.39414762
19.39388898
19.39357423
19.39320508
19.39278364
19.39231237
19.39179401
19.39123154
19.3906281
19.38998695
19.38931138
19.3886047
19.38787013
19.38711082
19.38632975
19.38552975
19.38471345
19.38388324
19.38304133
19.38218965
19.38132996
19.38046376
19.37959238
19.37871693
19.37783838
19.37695757
19.37607521
19.37519194
19.37482952
19.37498928
19.37515014
19.37531282
19.37547806
19.3756466
19.37581917
19.37599653
19.37617941
19.37636859
19.3765648
19.37676883
19.37698142
19.37720334
19.37743536
19.37767824
19.37793272
19.37819955
19.37847945
19.37877312
19.37908125
19.37940445
19.37974334
19.38009843
19.38047022
19.38085909
19.38126535
19.3816892
19.38213072
19.38258986
19.38306641
19.38356001
19.38407008
19.38459588
19.38513642
19.38569049
19.38625661
19.38683305
19.38741783
19.38800865
19.38860296
19.38919792
19.38979041
19.39037708
19.39095432
19.3915183
19.39206504
19.3925904
19.39309015
19.39356003
19.3939958
19.3943933
19.39474851
19.39505763
19.39531714
19.39552384
19.39567497
19.39576817
19.39580168
19.39577397
19.39568436
19.39553265
19.39531913
19.39504468
19.39471064
19.39431885
19.39387155
19.39337138
19.39282125
19.39222434
19.39158399
19.39090368
19.39018692
19.3894372
19.38865798
19.38785259
19.3870242
19.38617582
19.38531023
19.38442998
19.38353739
19.38263454
19.38172325
19.38080514
19.37988158
19.37895376
19.37802271
19.3770893
19.37615427
19.3752183
19.37483345
19.3750011
19.3751699
19.37534061
19.37551401
19.37569087
19.37587197
19.37605809
19.37625001
19.37644854
19.37665446
19.37686857
19.37709168
19.37732458
19.37756809
19.377823
19.37809009
19.37837015
19.37866394
19.3789722
19.37929563
19.37963491
19.37999065
19.38036344
19.38075376
19.38116204
19.3815886
19.38203365
19.38249728
19.38297945
19.38347994
19.38399837
19.38453415
19.38508649
19.38565437
19.3862365
19.38683136
19.38743713
19.38805172
19.38867272
19.38929747
19.38992296
19.39054594
19.39116287
19.39176995
19.39236317
19.39293831
19.39349104
19.39401689
19.39451138
19.39497003
19.39538846
19.39576242
19.39608792
19.39636123
19.396579
19.39673827
19.3968366
19.39687209
19.39684317
19.39674909
19.39658964
19.39636516
19.39607656
19.39572525
19.39531319
19.39484276
19.39431671
19.39373815
19.39311042
19.39243706
19.39172172
19.39096811
19.39017992
19.38936079
19.38851422
19.38764357
19.38675198
19.38584238
19.38491746
19.38397966
19.38303114
19.38207383
19.38110942
19.38013934
19.37916485
19.378187
19.3772067
19.37622473
19.3752418
19.37483686
19.37501136
19.37518706
19.37536476
19.37554525
19.37572934
19.37591785
19.37611159
19.37631137
19.37651802
19.37673237
19.37695525
19.3771875
19.37742996
19.37768345
19.37794882
19.37822688
19.37851844
19.37882431
19.37914524
19.37948199
19.37983524
19.38020566
19.38059383
19.38100029
19.38142545
19.38186968
19.38233319
19.38281608
19.3833183
19.38383964
19.3843797
19.38493788
19.38551335
19.38610505
19.38671167
19.38733159
19.38796295
19.38860355
19.38925091
19.38990223
19.3905544
19.39120401
19.39184739
19.39248056
19.39309935
19.39369935
19.39427603
19.39482474
19.39534077
19.39581947
19.39625624
19.39664665
19.39698652
19.39727194
19.39749942
19.39766586
19.3977687
19.39780597
19.397776
19.39767803
19.39751184
19.39727778
19.3969768
19.3966104
19.39618062
19.39568995
19.39514128
19.39453786
19.39388318
19.39318096
19.39243501
19.39164921
19.39082742
19.38997344
19.38909092
19.38818337
19.38725407
19.38630608
19.38534221
19.38436497
19.38337664
19.38237923
19.38137446
19.38036385
19.37934869
19.37833008
19.37730894
19.37628609
19.37526226
19.37483973
19.37502002
19.37520154
19.37538511
19.37557158
19.37576178
19.37595653
19.37615669
19.37636309
19.37657659
19.37679805
19.37702833
19.37726829
19.3775188
19.37778071
19.3780549
19.37834221
19.37864348
19.37895953
19.37929116
19.37963914
19.38000419
19.38038698
19.38078814
19.38120821
19.38164763
19.38210677
19.38258586
19.38308501
19.38360417
19.38414313
19.38470146
19.38527857
19.38587359
19.38648545
19.38711276
19.38775389
19.38840689
19.3890695
19.38973917
19.39041299
19.39108775
19.39175993
19.39242572
19.39308102
19.39372148
19.39434256
19.39493957
19.39550766
19.396042
19.39653772
19.39699006
19.39739445
19.39774653
19.39804226
19.398278
19.39845055
19.39855724
19.39859603
19.39856519
19.39846395
19.39829205
19.39804987
19.39773841
19.39735922
19.39691441
19.39640658
19.39583874
19.39521424
19.39453673
19.39381005
19.39303817
19.3922251
19.39137485
19.39049135
19.3895784
19.38863962
19.38767842
19.38669796
19.38570113
19.38469055
19.38366857
19.38263724
19.38159838
19.38055352
19.379504
19.37845094
19.3773953
19.37633793
19.37527954
19.37484206
19.37502701
19.37521322
19.37540156
19.37559285
19.37578797
19.37598777
19.37619311
19.37640486
19.3766239
19.3768511
19.37708735
19.37733354
19.37759055
19.37785927
19.37814058
19.37843536
19.37874447
19.37906875
19.37940903
19.37976608
19.38014066
19.38053346
19.38094512
19.38137619
19.38182714
19.38229834
19.38279003
19.38330233
19.38383519
19.38438839
19.38496152
19.38555394
19.38616479
19.38679295
19.38743702
19.38809532
19.38876586
19.38944631
19.39013405
19.39082611
19.39151919
19.39220968
19.39289364
19.39356688
19.39422494
19.39486314
19.39547664
19.39606049
19.39660969
19.39711924
19.39758425
19.39800001
19.39836202
19.39866613
19.39890859
19.39908612
19.39919596
19.39923599
19.39920447
19.39910057
19.39892405
19.39867529
19.39835532
19.39796575
19.39750875
19.396987
19.39640359
19.395762
19.39506597
19.39431945
19.39352653
19.39269135
19.39181802
19.3909106
19.38997299
19.38900891
19.38802186
19.38701509
19.38599157
19.384954
19.38390477
19.382846
19.38177953
19.38070696
19.37962963
19.37854871
19.37746517
19.37637985
19.37529352
19.37484381
19.37503229
19.37522205
19.37541398
19.37560892
19.37580776
19.37601137
19.37622063
19.37643642
19.37665964
19.37689118
19.37713195
19.37738284
19.37764476
19.37791862
19.37820532
19.37850575
19.37882078
19.37915128
19.37949809
19.379862
19.38024379
19.38064416
19.38106375
19.38150314
19.3819628
19.38244312
19.38294435
19.38346659
19.38400982
19.3845738
19.38515812
19.38576213
19.38638496
19.38702546
19.38768223
19.38835353
19.38903734
19.38973131
19.39043274
19.39113862
19.39184558
19.39254994
19.39324769
19.39393454
19.39460594
19.39525713
19.39588315
19.39647896
19.39703943
19.39755949
19.39803412
19.3984585
19.39882806
19.39913855
19.39938612
19.39956744
19.39967967
19.39972066
19.39968862
19.39958271
19.39940269
19.39914895
19.39882253
19.39842509
19.39795884
19.39742653
19.39683132
19.39617676
19.39546668
19.39470512
19.39389626
19.39304432
19.3921535
19.39122796
19.39027166
19.38928841
19.38828178
19.38725509
19.38621136
19.38515335
19.38408349
19.38300395
19.3819166
19.38082305
19.37972468
19.37862268
19.37751802
19.37641157
19.37530409
19.37484499
19.37503583
19.37522797
19.3754223
19.37561969
19.37582102
19.37602719
19.37623907
19.37645757
19.37668359
19.37691804
19.37716183
19.37741588
19.37768109
19.3779584
19.37824871
19.37855292
19.37887192
19.3792066
19.37955778
19.3799263
19.38031291
19.38071835
19.38114326
19.38158823
19.38205374
19.38254018
19.38304779
19.38357671
19.38412689
19.3846981
19.38528993
19.38590172
19.38653259
19.38718138
19.38784665
19.38852668
19.38921941
19.38992245
19.39063308
19.39134824
19.39206453
19.39277821
19.39348522
19.39418121
19.39486158
19.3955215
19.39615594
19.39675978
19.39732784
19.39785496
19.39833606
19.39876626
19.39914089
19.39945567
19.39970669
19.39989055
19.4000044
19.40004604
19.40001366
19.39990641
19.39972403
19.39946694
19.39913619
19.39873345
19.39826099
19.39772159
19.39711845
19.39645518
19.39573566
19.39496399
19.39414441
19.39328121
19.39237865
19.39144093
19.39047208
19.38947596
19.38845619
19.38741612
19.38635883
19.3852871
19.3842034
19.38310992
19.38200855
19.38090093
19.37978845
19.3786723
19.37755348
19.37643285
19.37531119
19.37484558
19.3750376
19.37523094
19.37542647
19.37562509
19.37582768
19.37603512
19.37624832
19.37646818
19.37669561
19.37693151
19.37717682
19.37743245
19.37769932
19.37797835
19.37827047
19.37857658
19.37889758
19.37923434
19.37958773
19.37995855
19.38034759
19.38075557
19.38118315
19.38163092
19.38209936
19.38258886
19.38309969
19.38363196
19.38418562
19.38476047
19.38535606
19.38597175
19.38660665
19.3872596
19.38792916
19.38861357
19.38931077
19.39001837
19.39073362
19.39145344
19.39217441
19.39289277
19.39360443
19.39430502
19.3949899
19.3956542
19.39629287
19.39690075
19.39747263
19.3980033
19.39848765
19.39892076
19.39929795
19.39961489
19.39986764
19.40005279
19.40016744
19.40020942
19.40017686
19.40006893
19.39988538
19.3996266
19.39929367
19.39888828
19.3984127
19.39786973
19.39726261
19.39659496
19.3958707
19.39509395
19.39426899
19.39340013
19.39249168
19.39154784
19.39057269
19.3895701
19.38854373
19.38749695
19.38643285
19.38535423
19.38426358
19.3831631
19.3820547
19.38094001
19.37982045
19.3786972
19.37757127
19.37644353
19.37531475
19.37484558
19.3750376
19.37523094
19.37542647
19.37562509
19.37582768
19.37603512
19.37624832
19.37646818
19.37669561
19.37693151
19.37717682
19.37743245
19.37769932
19.37797835
19.37827047
19.37857658
19.37889758
19.37923434
19.37958773
19.37995855
19.38034759
19.38075557
19.38118315
19.38163092
19.38209936
19.38258886
19.38309969
19.38363196
19.38418562
19.38476047
19.38535606
19.38597175
19.38660665
19.3872596
19.38792916
19.38861357
19.38931077
19.39001837
19.39073362
19.39145344
19.39217441
19.39289277
19.39360443
19.39430502
19.3949899
19.3956542
19.39629287
19.39690075
19.39747263
19.3980033
19.39848765
19.39892077
19.39929796
19.39961489
19.39986764
19.40005279
19.40016745
19.40020942
19.40017686
19.40006894
19.39988538
19.3996266
19.39929367
19.39888828
19.3984127
19.39786973
19.39726261
19.39659496
19.3958707
19.39509395
19.39426899
19.39340013
19.39249168
19.39154784
19.39057269
19.3895701
19.38854373
19.38749695
19.38643285
19.38535423
19.38426358
19.3831631
19.3820547
19.38094001
19.37982045
19.3786972
19.37757127
19.37644353
19.37531475
19.37484499
19.37503583
19.37522797
19.3754223
19.37561969
19.37582102
19.37602719
19.37623907
19.37645757
19.37668359
19.37691804
19.37716183
19.37741588
19.37768109
19.3779584
19.37824871
19.37855292
19.37887192
19.3792066
19.37955778
19.3799263
19.38031291
19.38071835
19.38114326
19.38158823
19.38205374
19.38254018
19.38304779
19.38357671
19.38412689
19.3846981
19.38528993
19.38590172
19.38653259
19.38718138
19.38784665
19.38852668
19.38921941
19.38992245
19.39063308
19.39134824
19.39206453
19.39277821
19.39348522
19.39418121
19.39486159
19.3955215
19.39615594
19.39675978
19.39732784
19.39785496
19.39833607
19.39876626
19.39914089
19.39945567
19.39970669
19.39989055
19.4000044
19.40004604
19.40001366
19.39990641
19.39972403
19.39946694
19.39913619
19.39873345
19.398261
19.39772159
19.39711845
19.39645518
19.39573566
19.39496399
19.39414441
19.39328121
19.39237865
19.39144093
19.39047208
19.38947596
19.38845619
19.38741612
19.38635883
19.3852871
19.3842034
19.38310992
19.38200855
19.38090093
19.37978845
19.3786723
19.37755348
19.37643285
19.37531119
19.37484381
19.37503229
19.37522205
19.37541398
19.37560892
19.37580776
19.37601137
19.37622063
19.37643642
19.37665964
19.37689118
19.37713195
19.37738284
19.37764476
19.37791862
19.37820532
19.37850575
19.37882078
19.37915128
19.37949809
19.37986201
19.38024379
19.38064416
19.38106375
19.38150314
19.3819628
19.38244312
19.38294435
19.38346659
19.38400982
19.3845738
19.38515812
19.38576213
19.38638496
19.38702547
19.38768223
19.38835353
19.38903734
19.38973131
19.39043274
19.39113862
19.39184559
19.39254994
19.39324769
19.39393454
19.39460594
19.39525713
19.39588315
19.39647896
19.39703943
19.39755949
19.39803412
19.3984585
19.39882806
19.39913855
19.39938613
19.39956744
19.39967967
19.39972067
19.39968863
19.39958272
19.39940269
19.39914895
19.39882253
19.39842509
19.39795884
19.39742653
19.39683133
19.39617677
19.39546668
19.39470512
19.39389626
19.39304432
19.39215351
19.39122796
19.39027166
19.38928841
19.38828178
19.38725509
19.38621136
19.38515335
19.38408349
19.38300395
19.3819166
19.38082305
19.37972468
19.37862268
19.37751802
19.37641157
19.37530409
19.37484206
19.37502701
19.37521322
19.37540156
19.37559285
19.37578797
19.37598777
19.37619311
19.37640486
19.3766239
19.3768511
19.37708735
19.37733354
19.37759055
19.37785927
19.37814058
19.37843536
19.37874447
19.37906875
19.37940903
19.37976608
19.38014066
19.38053346
19.38094512
19.38137619
19.38182714
19.38229834
19.38279003
19.38330233
19.38383519
19.38438839
19.38496152
19.38555394
19.38616479
19.38679295
19.38743703
19.38809533
19.38876586
19.38944631
19.39013406
19.39082611
19.39151919
19.39220968
19.39289364
19.39356689
19.39422494
19.39486314
19.39547665
19.3960605
19.39660969
19.39711924
19.39758426
19.39800001
19.39836202
19.39866613
19.3989086
19.39908612
19.39919596
19.399236
19.39920447
19.39910057
19.39892405
19.39867529
19.39835532
19.39796575
19.39750875
19.396987
19.39640359
19.395762
19.39506597
19.39431945
19.39352653
19.39269135
19.39181802
19.3909106
19.38997299
19.38900891
19.38802186
19.38701509
19.38599157
19.384954
19.38390477
19.382846
19.38177953
19.38070696
19.37962963
19.37854871
19.37746517
19.37637985
19.37529352
19.37483973
19.37502002
19.37520154
19.37538511
19.37557158
19.37576178
19.37595653
19.37615669
19.37636309
19.37657659
19.37679805
19.37702833
19.37726829
19.3775188
19.37778071
19.3780549
19.37834221
19.37864348
19.37895953
19.37929116
19.37963914
19.38000419
19.38038698
19.38078814
19.38120821
19.38164763
19.38210677
19.38258586
19.38308501
19.38360418
19.38414313
19.38470147
19.38527857
19.3858736
19.38648545
19.38711276
19.38775389
19.38840689
19.38906951
19.38973917
19.39041299
19.39108775
19.39175994
19.39242572
19.39308102
19.39372148
19.39434257
19.39493957
19.39550767
19.396042
19.39653772
19.39699007
19.39739446
19.39774653
19.39804227
19.398278
19.39845056
19.39855725
19.39859603
19.3985652
19.39846395
19.39829205
19.39804988
19.39773841
19.39735922
19.39691441
19.39640658
19.39583874
19.39521424
19.39453673
19.39381005
19.39303817
19.3922251
19.39137485
19.39049135
19.3895784
19.38863963
19.38767842
19.38669796
19.38570113
19.38469055
19.38366857
19.38263724
19.38159838
19.38055352
19.379504
19.37845094
19.3773953
19.37633793
19.37527954
19.37483686
19.37501136
19.37518706
19.37536476
19.37554525
19.37572934
19.37591785
19.37611159
19.37631137
19.37651802
19.37673237
19.37695525
19.3771875
19.37742996
19.37768345
19.37794882
19.37822688
19.37851844
19.37882431
19.37914524
19.37948199
19.37983524
19.38020566
19.38059384
19.38100029
19.38142545
19.38186968
19.38233319
19.38281608
19.3833183
19.38383964
19.3843797
19.38493788
19.38551335
19.38610506
19.38671167
19.38733159
19.38796295
19.38860355
19.38925091
19.38990223
19.3905544
19.39120402
19.39184739
19.39248057
19.39309935
19.39369936
19.39427603
19.39482474
19.39534078
19.39581947
19.39625624
19.39664666
19.39698652
19.39727195
19.39749942
19.39766587
19.39776871
19.39780597
19.397776
19.39767803
19.39751184
19.39727778
19.3969768
19.39661041
19.39618062
19.39568995
19.39514128
19.39453786
19.39388319
19.39318096
19.39243501
19.39164921
19.39082742
19.38997344
19.38909092
19.38818337
19.38725407
19.38630608
19.38534221
19.38436497
19.38337664
19.38237923
19.38137446
19.38036385
19.37934869
19.37833008
19.37730894
19.37628609
19.37526226
19.37483345
19.3750011
19.3751699
19.37534061
19.37551401
19.37569087
19.37587197
19.37605809
19.37625001
19.37644854
19.37665446
19.37686857
19.37709168
19.37732459
19.37756809
19.377823
19.37809009
19.37837015
19.37866394
19.3789722
19.37929563
19.37963491
19.37999066
19.38036344
19.38075376
19.38116204
19.3815886
19.38203365
19.38249729
19.38297945
19.38347994
19.38399837
19.38453415
19.38508649
19.38565437
19.3862365
19.38683136
19.38743713
19.38805172
19.38867273
19.38929747
19.38992297
19.39054595
19.39116287
19.39176995
19.39236317
19.39293832
19.39349104
19.3940169
19.39451138
19.39497003
19.39538846
19.39576243
19.39608793
19.39636124
19.396579
19.39673828
19.3968366
19.3968721
19.39684317
19.39674909
19.39658965
19.39636517
19.39607656
19.39572526
19.3953132
19.39484276
19.39431671
19.39373815
19.39311042
19.39243706
19.39172172
19.39096811
19.39017992
19.38936079
19.38851422
19.38764357
19.38675198
19.38584238
19.38491746
19.38397966
19.38303114
19.38207383
19.38110942
19.38013934
19.37916485
19.378187
19.3772067
19.37622473
19.3752418
19.37482952
19.37498928
19.37515014
19.37531282
19.37547806
19.3756466
19.37581917
19.37599653
19.37617941
19.37636859
19.37656481
19.37676883
19.37698142
19.37720334
19.37743536
19.37767824
19.37793272
19.37819955
19.37847945