/*--------------------------------*- C++ -*----------------------------------*\
| =========                 |                                                 |
| \\      /  F ield         | foam-extend: Open Source CFD                    |
|  \\    /   O peration     | Version:     4.1                                |
|   \\  /    A nd           | Web:         http://www.foam-extend.org         |
|    \\/     M anipulation  |                                                 |
\*---------------------------------------------------------------------------*/
FoamFile
{
    version     2.0;
    format      ascii;
    class       pointVectorField;
    location    "0";
    object      pointW;
}
// * * * * * * * * * * * * * * * * * * * * * * * * * * * * * * * * * * * * * //

dimensions      [0 1 0 0 0 0 0];

internalField   nonuniform List<vector> 
1284
(
(0 0 0)
(0 0 0)
(0 0 0)
(0 0 0)
(0.00122694 0.000302702 0)
(0.00122694 0.000302702 0)
(-0.00122743 0.000299691 0)
(-0.00122743 0.000299691 0)
(0.00245239 0.00121081 0)
(0.00245239 0.00121081 0)
(-0.00245633 0.00119876 0)
(-0.00245633 0.00119876 0)
(0.00367487 0.00272431 0)
(0.00367487 0.00272431 0)
(-0.00368818 0.0026972 0)
(-0.00368818 0.0026972 0)
(0.00489289 0.0048432 0)
(0.00489289 0.0048432 0)
(-0.00492443 0.00479501 0)
(-0.00492443 0.00479501 0)
(0.00610495 0.00756741 0)
(0.00610495 0.00756741 0)
(-0.00616655 0.00749211 0)
(-0.00616655 0.00749211 0)
(0.00730961 0.0108971 0)
(0.00730961 0.0108971 0)
(-0.00741606 0.0107886 0)
(-0.00741606 0.0107886 0)
(0.00850536 0.0148321 0)
(0.00850536 0.0148321 0)
(-0.0086744 0.0146845 0)
(-0.0086744 0.0146845 0)
(0.00969071 0.0193724 0)
(0.00969071 0.0193724 0)
(-0.00994303 0.0191797 0)
(-0.00994303 0.0191797 0)
(0.0108641 0.0245179 0)
(0.0108641 0.0245179 0)
(-0.0112234 0.0242739 0)
(-0.0112234 0.0242739 0)
(0.0120242 0.0302687 0)
(0.0120242 0.0302687 0)
(-0.012517 0.0299676 0)
(-0.012517 0.0299676 0)
(0.0131694 0.0366249 0)
(0.0131694 0.0366249 0)
(-0.0138254 0.0362605 0)
(-0.0138254 0.0362605 0)
(0.0142983 0.0435859 0)
(0.0142983 0.0435859 0)
(-0.0151499 0.0431522 0)
(-0.0151499 0.0431522 0)
(0.0154093 0.0511524 0)
(0.0154093 0.0511524 0)
(-0.016492 0.0506434 0)
(-0.016492 0.0506434 0)
(0.0165011 0.059324 0)
(0.0165011 0.059324 0)
(-0.0178533 0.0587337 0)
(-0.0178533 0.0587337 0)
(0.017572 0.0681002 0)
(0.017572 0.0681002 0)
(-0.0192352 0.0674226 0)
(-0.0192352 0.0674226 0)
(0.0186207 0.0774818 0)
(0.0186207 0.0774818 0)
(-0.0206391 0.0767109 0)
(-0.0206391 0.0767109 0)
(0.0196456 0.0874684 0)
(0.0196456 0.0874684 0)
(-0.0220666 0.0865981 0)
(-0.0220666 0.0865981 0)
(0.0206452 0.0980594 0)
(0.0206452 0.0980594 0)
(-0.0235191 0.0970837 0)
(-0.0235191 0.0970837 0)
(0.0216181 0.109256 0)
(0.0216181 0.109256 0)
(-0.024998 0.108169 0)
(-0.024998 0.108169 0)
(0.0225628 0.121057 0)
(0.0225628 0.121057 0)
(-0.0265049 0.119852 0)
(-0.0265049 0.119852 0)
(0.0234777 0.133462 0)
(0.0234777 0.133462 0)
(-0.0280413 0.132134 0)
(-0.0280413 0.132134 0)
(0.0243615 0.146472 0)
(0.0243615 0.146472 0)
(-0.0296084 0.145015 0)
(-0.0296084 0.145015 0)
(0.0252126 0.160087 0)
(0.0252126 0.160087 0)
(-0.0312079 0.158494 0)
(-0.0312079 0.158494 0)
(0.0260296 0.174306 0)
(0.0260296 0.174306 0)
(-0.0328413 0.172572 0)
(-0.0328413 0.172572 0)
(0.0268108 0.189129 0)
(0.0268108 0.189129 0)
(-0.0345099 0.187248 0)
(-0.0345099 0.187248 0)
(0.027555 0.204557 0)
(0.027555 0.204557 0)
(-0.0362153 0.202522 0)
(-0.0362153 0.202522 0)
(0.0282606 0.22059 0)
(0.0282606 0.22059 0)
(-0.0379589 0.218395 0)
(-0.0379589 0.218395 0)
(0.0289261 0.237225 0)
(0.0289261 0.237225 0)
(-0.0397422 0.234865 0)
(-0.0397422 0.234865 0)
(0.02955 0.254465 0)
(0.02955 0.254465 0)
(-0.0415666 0.251933 0)
(-0.0415666 0.251933 0)
(0.0301309 0.272309 0)
(0.0301309 0.272309 0)
(-0.0434337 0.2696 0)
(-0.0434337 0.2696 0)
(0.0306672 0.290756 0)
(0.0306672 0.290756 0)
(-0.0453449 0.287863 0)
(-0.0453449 0.287863 0)
(0.0311575 0.309808 0)
(0.0311575 0.309808 0)
(-0.0473016 0.306725 0)
(-0.0473016 0.306725 0)
(0.0316003 0.329463 0)
(0.0316003 0.329463 0)
(-0.0493054 0.326185 0)
(-0.0493054 0.326185 0)
(0.0319941 0.349721 0)
(0.0319941 0.349721 0)
(-0.0513577 0.346242 0)
(-0.0513577 0.346242 0)
(0.0323375 0.370582 0)
(0.0323375 0.370582 0)
(-0.0534598 0.366895 0)
(-0.0534598 0.366895 0)
(0.0326289 0.392047 0)
(0.0326289 0.392047 0)
(-0.0556135 0.388146 0)
(-0.0556135 0.388146 0)
(0.0328669 0.414115 0)
(0.0328669 0.414115 0)
(-0.05782 0.409995 0)
(-0.05782 0.409995 0)
(0.03305 0.436785 0)
(0.03305 0.436785 0)
(-0.0600809 0.432439 0)
(-0.0600809 0.432439 0)
(0.0331767 0.460059 0)
(0.0331767 0.460059 0)
(-0.0623976 0.455481 0)
(-0.0623976 0.455481 0)
(0.0332456 0.483935 0)
(0.0332456 0.483935 0)
(-0.0647716 0.47912 0)
(-0.0647716 0.47912 0)
(0.0332551 0.508412 0)
(0.0332551 0.508412 0)
(-0.0672042 0.503353 0)
(-0.0672042 0.503353 0)
(0.0332038 0.5335 0)
(0.0332038 0.5335 0)
(-0.0696978 0.528191 0)
(-0.0696978 0.528191 0)
(0.0330902 0.559179 0)
(0.0330902 0.559179 0)
(-0.0722521 0.553615 0)
(-0.0722521 0.553615 0)
(0.0329128 0.58546 0)
(0.0329128 0.58546 0)
(-0.0748694 0.579635 0)
(-0.0748694 0.579635 0)
(0.0326701 0.612354 0)
(0.0326701 0.612354 0)
(-0.0775525 0.606261 0)
(-0.0775525 0.606261 0)
(0.0323608 0.639839 0)
(0.0323608 0.639839 0)
(-0.0803005 0.633472 0)
(-0.0803005 0.633472 0)
(0.0319833 0.667924 0)
(0.0319833 0.667924 0)
(-0.0831161 0.661278 0)
(-0.0831161 0.661278 0)
(0.0315359 0.696623 0)
(0.0315359 0.696623 0)
(-0.0860018 0.689692 0)
(-0.0860018 0.689692 0)
(0.0310176 0.725912 0)
(0.0310176 0.725912 0)
(-0.0889567 0.718689 0)
(-0.0889567 0.718689 0)
(0.0304267 0.755801 0)
(0.0304267 0.755801 0)
(-0.0919836 0.748281 0)
(-0.0919836 0.748281 0)
(0.0297614 0.786304 0)
(0.0297614 0.786304 0)
(-0.095085 0.77848 0)
(-0.095085 0.77848 0)
(0.0290207 0.817394 0)
(0.0290207 0.817394 0)
(-0.0982601 0.809261 0)
(-0.0982601 0.809261 0)
(0.0282027 0.849099 0)
(0.0282027 0.849099 0)
(-0.101513 0.84065 0)
(-0.101513 0.84065 0)
(0.0273066 0.88139 0)
(0.0273066 0.88139 0)
(-0.104842 0.87262 0)
(-0.104842 0.87262 0)
(0.0263304 0.914281 0)
(0.0263304 0.914281 0)
(-0.10825 0.905184 0)
(-0.10825 0.905184 0)
(0.0252723 0.947786 0)
(0.0252723 0.947786 0)
(-0.11174 0.938355 0)
(-0.11174 0.938355 0)
(0.0241318 0.981877 0)
(0.0241318 0.981877 0)
(-0.115311 0.972107 0)
(-0.115311 0.972107 0)
(0.0229068 1.01657 0)
(0.0229068 1.01657 0)
(-0.118966 1.00645 0)
(-0.118966 1.00645 0)
(0.0215954 1.05187 0)
(0.0215954 1.05187 0)
(-0.122707 1.0414 0)
(-0.122707 1.0414 0)
(0.0201972 1.08776 0)
(0.0201972 1.08776 0)
(-0.126533 1.07694 0)
(-0.126533 1.07694 0)
(0.0187096 1.12426 0)
(0.0187096 1.12426 0)
(-0.130449 1.11307 0)
(-0.130449 1.11307 0)
(0.0171323 1.16135 0)
(0.0171323 1.16135 0)
(-0.134452 1.14979 0)
(-0.134452 1.14979 0)
(0.0154632 1.19903 0)
(0.0154632 1.19903 0)
(-0.138546 1.1871 0)
(-0.138546 1.1871 0)
(0.0137002 1.23733 0)
(0.0137002 1.23733 0)
(-0.142735 1.22502 0)
(-0.142735 1.22502 0)
(0.0118432 1.27621 0)
(0.0118432 1.27621 0)
(-0.147015 1.26351 0)
(-0.147015 1.26351 0)
(0.00989007 1.31569 0)
(0.00989007 1.31569 0)
(-0.15139 1.30259 0)
(-0.15139 1.30259 0)
(0.00783847 1.35578 0)
(0.00783847 1.35578 0)
(-0.155864 1.34229 0)
(-0.155864 1.34229 0)
(0.00568861 1.39645 0)
(0.00568861 1.39645 0)
(-0.160435 1.38255 0)
(-0.160435 1.38255 0)
(0.00343822 1.43772 0)
(0.00343822 1.43772 0)
(-0.165104 1.42341 0)
(-0.165104 1.42341 0)
(0.00108483 1.4796 0)
(0.00108483 1.4796 0)
(-0.169877 1.46488 0)
(-0.169877 1.46488 0)
(-0.00137109 1.52206 0)
(-0.00137109 1.52206 0)
(-0.174751 1.50692 0)
(-0.174751 1.50692 0)
(-0.003933 1.56514 0)
(-0.003933 1.56514 0)
(-0.17973 1.54956 0)
(-0.17973 1.54956 0)
(-0.00660029 1.60879 0)
(-0.00660029 1.60879 0)
(-0.184812 1.59278 0)
(-0.184812 1.59278 0)
(-0.00937544 1.65304 0)
(-0.00937544 1.65304 0)
(-0.190002 1.63659 0)
(-0.190002 1.63659 0)
(-0.0122611 1.6979 0)
(-0.0122611 1.6979 0)
(-0.195301 1.68101 0)
(-0.195301 1.68101 0)
(-0.0152564 1.74334 0)
(-0.0152564 1.74334 0)
(-0.200709 1.726 0)
(-0.200709 1.726 0)
(-0.0183639 1.78938 0)
(-0.0183639 1.78938 0)
(-0.206227 1.77157 0)
(-0.206227 1.77157 0)
(-0.0215865 1.83603 0)
(-0.0215865 1.83603 0)
(-0.21186 1.81776 0)
(-0.21186 1.81776 0)
(-0.0249229 1.88325 0)
(-0.0249229 1.88325 0)
(-0.217605 1.86451 0)
(-0.217605 1.86451 0)
(-0.0283774 1.93109 0)
(-0.0283774 1.93109 0)
(-0.223468 1.91187 0)
(-0.223468 1.91187 0)
(-0.0319486 1.9795 0)
(-0.0319486 1.9795 0)
(-0.229446 1.9598 0)
(-0.229446 1.9598 0)
(-0.0356393 2.0285 0)
(-0.0356393 2.0285 0)
(-0.235541 2.00832 0)
(-0.235541 2.00832 0)
(-0.0394526 2.07812 0)
(-0.0394526 2.07812 0)
(-0.24176 2.05745 0)
(-0.24176 2.05745 0)
(-0.0433867 2.12831 0)
(-0.0433867 2.12831 0)
(-0.248096 2.10714 0)
(-0.248096 2.10714 0)
(-0.0474448 2.1791 0)
(-0.0474448 2.1791 0)
(-0.254556 2.15741 0)
(-0.254556 2.15741 0)
(-0.05163 2.23049 0)
(-0.05163 2.23049 0)
(-0.261142 2.2083 0)
(-0.261142 2.2083 0)
(-0.0559402 2.28246 0)
(-0.0559402 2.28246 0)
(-0.267851 2.25975 0)
(-0.267851 2.25975 0)
(-0.0603787 2.33502 0)
(-0.0603787 2.33502 0)
(-0.274687 2.31178 0)
(-0.274687 2.31178 0)
(-0.0649489 2.38819 0)
(-0.0649489 2.38819 0)
(-0.281655 2.36443 0)
(-0.281655 2.36443 0)
(-0.0696483 2.44193 0)
(-0.0696483 2.44193 0)
(-0.288749 2.41763 0)
(-0.288749 2.41763 0)
(-0.0744823 2.49628 0)
(-0.0744823 2.49628 0)
(-0.295978 2.47145 0)
(-0.295978 2.47145 0)
(-0.0794485 2.55121 0)
(-0.0794485 2.55121 0)
(-0.303337 2.52582 0)
(-0.303337 2.52582 0)
(-0.0845502 2.60672 0)
(-0.0845502 2.60672 0)
(-0.310829 2.58078 0)
(-0.310829 2.58078 0)
(-0.0897909 2.66284 0)
(-0.0897909 2.66284 0)
(-0.318461 2.63635 0)
(-0.318461 2.63635 0)
(-0.095168 2.71953 0)
(-0.095168 2.71953 0)
(-0.326226 2.69247 0)
(-0.326226 2.69247 0)
(-0.100685 2.77681 0)
(-0.100685 2.77681 0)
(-0.33413 2.74918 0)
(-0.33413 2.74918 0)
(-0.106345 2.8347 0)
(-0.106345 2.8347 0)
(-0.342177 2.8065 0)
(-0.342177 2.8065 0)
(-0.112146 2.89316 0)
(-0.112146 2.89316 0)
(-0.350362 2.86437 0)
(-0.350362 2.86437 0)
(-0.118094 2.95223 0)
(-0.118094 2.95223 0)
(-0.358693 2.92285 0)
(-0.358693 2.92285 0)
(-0.124185 3.01186 0)
(-0.124185 3.01186 0)
(-0.367165 2.98189 0)
(-0.367165 2.98189 0)
(-0.130423 3.07208 0)
(-0.130423 3.07208 0)
(-0.375783 3.04151 0)
(-0.375783 3.04151 0)
(-0.136812 3.13291 0)
(-0.136812 3.13291 0)
(-0.384551 3.10174 0)
(-0.384551 3.10174 0)
(-0.143348 3.1943 0)
(-0.143348 3.1943 0)
(-0.393464 3.16252 0)
(-0.393464 3.16252 0)
(-0.150036 3.25628 0)
(-0.150036 3.25628 0)
(-0.402527 3.22388 0)
(-0.402527 3.22388 0)
(-0.156879 3.31887 0)
(-0.156879 3.31887 0)
(-0.411745 3.28585 0)
(-0.411745 3.28585 0)
(-0.163874 3.38202 0)
(-0.163874 3.38202 0)
(-0.421112 3.34837 0)
(-0.421112 3.34837 0)
(-0.171028 3.44578 0)
(-0.171028 3.44578 0)
(-0.430637 3.41149 0)
(-0.430637 3.41149 0)
(-0.178335 3.5101 0)
(-0.178335 3.5101 0)
(-0.440314 3.47517 0)
(-0.440314 3.47517 0)
(-0.185802 3.575 0)
(-0.185802 3.575 0)
(-0.450148 3.53943 0)
(-0.450148 3.53943 0)
(-0.193431 3.64052 0)
(-0.193431 3.64052 0)
(-0.460144 3.60429 0)
(-0.460144 3.60429 0)
(-0.201219 3.70659 0)
(-0.201219 3.70659 0)
(-0.470296 3.66971 0)
(-0.470296 3.66971 0)
(-0.209169 3.77324 0)
(-0.209169 3.77324 0)
(-0.48061 3.7357 0)
(-0.48061 3.7357 0)
(-0.217288 3.8405 0)
(-0.217288 3.8405 0)
(-0.49109 3.80229 0)
(-0.49109 3.80229 0)
(-0.225568 3.90832 0)
(-0.225568 3.90832 0)
(-0.50173 3.86943 0)
(-0.50173 3.86943 0)
(-0.234016 3.97672 0)
(-0.234016 3.97672 0)
(-0.512536 3.93715 0)
(-0.512536 3.93715 0)
(-0.242636 4.04573 0)
(-0.242636 4.04573 0)
(-0.523512 4.00547 0)
(-0.523512 4.00547 0)
(-0.251423 4.11529 0)
(-0.251423 4.11529 0)
(-0.534653 4.07434 0)
(-0.534653 4.07434 0)
(-0.260384 4.18546 0)
(-0.260384 4.18546 0)
(-0.545968 4.14382 0)
(-0.545968 4.14382 0)
(-0.269515 4.25619 0)
(-0.269515 4.25619 0)
(-0.55745 4.21384 0)
(-0.55745 4.21384 0)
(-0.27882 4.32749 0)
(-0.27882 4.32749 0)
(-0.569104 4.28443 0)
(-0.569104 4.28443 0)
(-0.288305 4.3994 0)
(-0.288305 4.3994 0)
(-0.580938 4.35562 0)
(-0.580938 4.35562 0)
(-0.297963 4.47186 0)
(-0.297963 4.47186 0)
(-0.592941 4.42736 0)
(-0.592941 4.42736 0)
(-0.307799 4.5449 0)
(-0.307799 4.5449 0)
(-0.605121 4.49968 0)
(-0.605121 4.49968 0)
(-0.31782 4.61854 0)
(-0.31782 4.61854 0)
(-0.617485 4.57259 0)
(-0.617485 4.57259 0)
(-0.328017 4.69274 0)
(-0.328017 4.69274 0)
(-0.630023 4.64605 0)
(-0.630023 4.64605 0)
(-0.338402 4.76754 0)
(-0.338402 4.76754 0)
(-0.642748 4.7201 0)
(-0.642748 4.7201 0)
(-0.348967 4.84289 0)
(-0.348967 4.84289 0)
(-0.655649 4.7947 0)
(-0.655649 4.7947 0)
(-0.359718 4.91881 0)
(-0.359718 4.91881 0)
(-0.668734 4.86987 0)
(-0.668734 4.86987 0)
(-0.37066 4.99534 0)
(-0.37066 4.99534 0)
(-0.68201 4.94564 0)
(-0.68201 4.94564 0)
(-0.381786 5.07242 0)
(-0.381786 5.07242 0)
(-0.695467 5.02195 0)
(-0.695467 5.02195 0)
(-0.393102 5.15007 0)
(-0.393102 5.15007 0)
(-0.709113 5.09882 0)
(-0.709113 5.09882 0)
(-0.404613 5.22832 0)
(-0.404613 5.22832 0)
(-0.722953 5.1763 0)
(-0.722953 5.1763 0)
(-0.416313 5.30712 0)
(-0.416313 5.30712 0)
(-0.736978 5.25431 0)
(-0.736978 5.25431 0)
(-0.428207 5.38649 0)
(-0.428207 5.38649 0)
(-0.751195 5.3329 0)
(-0.751195 5.3329 0)
(-0.440302 5.46647 0)
(-0.440302 5.46647 0)
(-0.765612 5.41208 0)
(-0.765612 5.41208 0)
(-0.452588 5.54699 0)
(-0.452588 5.54699 0)
(-0.780218 5.49179 0)
(-0.780218 5.49179 0)
(-0.465078 5.62811 0)
(-0.465078 5.62811 0)
(-0.795026 5.57211 0)
(-0.795026 5.57211 0)
(-0.477762 5.70977 0)
(-0.477762 5.70977 0)
(-0.810026 5.65295 0)
(-0.810026 5.65295 0)
(-0.490648 5.792 0)
(-0.490648 5.792 0)
(-0.825226 5.73437 0)
(-0.825226 5.73437 0)
(-0.503741 5.87483 0)
(-0.503741 5.87483 0)
(-0.840631 5.81638 0)
(-0.840631 5.81638 0)
(-0.517033 5.9582 0)
(-0.517033 5.9582 0)
(-0.856233 5.89892 0)
(-0.856233 5.89892 0)
(-0.530531 6.04214 0)
(-0.530531 6.04214 0)
(-0.872038 5.98202 0)
(-0.872038 5.98202 0)
(-0.54424 6.12669 0)
(-0.54424 6.12669 0)
(-0.888054 6.06573 0)
(-0.888054 6.06573 0)
(-0.558152 6.21177 0)
(-0.558152 6.21177 0)
(-0.904269 6.14996 0)
(-0.904269 6.14996 0)
(-0.57228 6.29745 0)
(-0.57228 6.29745 0)
(-0.920699 6.23479 0)
(-0.920699 6.23479 0)
(-0.586612 6.38366 0)
(-0.586612 6.38366 0)
(-0.937331 6.32014 0)
(-0.937331 6.32014 0)
(-0.601157 6.47044 0)
(-0.601157 6.47044 0)
(-0.954173 6.40606 0)
(-0.954173 6.40606 0)
(-0.615922 6.55782 0)
(-0.615922 6.55782 0)
(-0.971233 6.49257 0)
(-0.971233 6.49257 0)
(-0.630896 6.64573 0)
(-0.630896 6.64573 0)
(-0.9885 6.57961 0)
(-0.9885 6.57961 0)
(-0.646086 6.73421 0)
(-0.646086 6.73421 0)
(-1.00598 6.6672 0)
(-1.00598 6.6672 0)
(-0.6615 6.82329 0)
(-0.6615 6.82329 0)
(-1.02368 6.7554 0)
(-1.02368 6.7554 0)
(-0.677127 6.9129 0)
(-0.677127 6.9129 0)
(-1.0416 6.84411 0)
(-1.0416 6.84411 0)
(-0.692975 7.00307 0)
(-0.692975 7.00307 0)
(-1.05973 6.93338 0)
(-1.05973 6.93338 0)
(-0.709051 7.09384 0)
(-0.709051 7.09384 0)
(-1.07809 7.02325 0)
(-1.07809 7.02325 0)
(-0.725344 7.18513 0)
(-0.725344 7.18513 0)
(-1.09666 7.11364 0)
(-1.09666 7.11364 0)
(-0.741869 7.27703 0)
(-0.741869 7.27703 0)
(-1.11546 7.20462 0)
(-1.11546 7.20462 0)
(-0.758613 7.36945 0)
(-0.758613 7.36945 0)
(-1.13448 7.29612 0)
(-1.13448 7.29612 0)
(-0.775585 7.46243 0)
(-0.775585 7.46243 0)
(-1.15373 7.38817 0)
(-1.15373 7.38817 0)
(-0.792792 7.55601 0)
(-0.792792 7.55601 0)
(-1.17321 7.48082 0)
(-1.17321 7.48082 0)
(-0.810223 7.65011 0)
(-0.810223 7.65011 0)
(-1.19291 7.57398 0)
(-1.19291 7.57398 0)
(-0.827885 7.74476 0)
(-0.827885 7.74476 0)
(-1.21283 7.6677 0)
(-1.21283 7.6677 0)
(-0.845788 7.84002 0)
(-0.845788 7.84002 0)
(-1.233 7.76201 0)
(-1.233 7.76201 0)
(-0.863918 7.9358 0)
(-0.863918 7.9358 0)
(-1.25339 7.85684 0)
(-1.25339 7.85684 0)
(-0.882291 8.03217 0)
(-0.882291 8.03217 0)
(-1.27403 7.95225 0)
(-1.27403 7.95225 0)
(-0.900894 8.12906 0)
(-0.900894 8.12906 0)
(-1.29489 8.04818 0)
(-1.29489 8.04818 0)
(-0.919735 8.22651 0)
(-0.919735 8.22651 0)
(-1.31598 8.14465 0)
(-1.31598 8.14465 0)
(-0.938824 8.32455 0)
(-0.938824 8.32455 0)
(-1.33732 8.24172 0)
(-1.33732 8.24172 0)
(-0.958146 8.42311 0)
(-0.958146 8.42311 0)
(-1.35889 8.3393 0)
(-1.35889 8.3393 0)
(-0.977711 8.52222 0)
(-0.977711 8.52222 0)
(-1.38071 8.43742 0)
(-1.38071 8.43742 0)
(-0.997528 8.62193 0)
(-0.997528 8.62193 0)
(-1.40277 8.53614 0)
(-1.40277 8.53614 0)
(-1.01758 8.72215 0)
(-1.01758 8.72215 0)
(-1.42507 8.63536 0)
(-1.42507 8.63536 0)
(-1.03789 8.82296 0)
(-1.03789 8.82296 0)
(-1.44762 8.73517 0)
(-1.44762 8.73517 0)
(-1.05844 8.92429 0)
(-1.05844 8.92429 0)
(-1.4704 8.83549 0)
(-1.4704 8.83549 0)
(-1.07924 9.02617 0)
(-1.07924 9.02617 0)
(-1.49343 8.93635 0)
(-1.49343 8.93635 0)
(-1.1003 9.12864 0)
(-1.1003 9.12864 0)
(-1.51673 9.0378 0)
(-1.51673 9.0378 0)
(-1.1216 9.23161 0)
(-1.1216 9.23161 0)
(-1.54026 9.13976 0)
(-1.54026 9.13976 0)
(-1.14315 9.33514 0)
(-1.14315 9.33514 0)
(-1.56404 9.24225 0)
(-1.56404 9.24225 0)
(-1.16497 9.43926 0)
(-1.16497 9.43926 0)
(-1.58808 9.34534 0)
(-1.58808 9.34534 0)
(-1.18703 9.54389 0)
(-1.18703 9.54389 0)
(-1.61237 9.44892 0)
(-1.61237 9.44892 0)
(-1.20936 9.64906 0)
(-1.20936 9.64906 0)
(-1.63691 9.55305 0)
(-1.63691 9.55305 0)
(-1.23195 9.75482 0)
(-1.23195 9.75482 0)
(-1.66172 9.65776 0)
(-1.66172 9.65776 0)
(-1.25479 9.86109 0)
(-1.25479 9.86109 0)
(-1.68678 9.76297 0)
(-1.68678 9.76297 0)
(-1.2779 9.96794 0)
(-1.2779 9.96794 0)
(-1.7121 9.86876 0)
(-1.7121 9.86876 0)
(-1.30127 10.0753 0)
(-1.30127 10.0753 0)
(-1.73768 9.97505 0)
(-1.73768 9.97505 0)
(-1.3249 10.1832 0)
(-1.3249 10.1832 0)
(-1.76351 10.0819 0)
(-1.76351 10.0819 0)
(-1.3488 10.2917 0)
(-1.3488 10.2917 0)
(-1.78962 10.1893 0)
(-1.78962 10.1893 0)
(-1.37296 10.4007 0)
(-1.37296 10.4007 0)
(-1.81599 10.2972 0)
(-1.81599 10.2972 0)
(-1.3974 10.5102 0)
(-1.3974 10.5102 0)
(-1.84262 10.4056 0)
(-1.84262 10.4056 0)
(-1.42211 10.6203 0)
(-1.42211 10.6203 0)
(-1.86952 10.5147 0)
(-1.86952 10.5147 0)
(-1.44708 10.731 0)
(-1.44708 10.731 0)
(-1.89669 10.6242 0)
(-1.89669 10.6242 0)
(-1.47233 10.8422 0)
(-1.47233 10.8422 0)
(-1.92413 10.7343 0)
(-1.92413 10.7343 0)
(-1.49785 10.9539 0)
(-1.49785 10.9539 0)
(-1.95184 10.8449 0)
(-1.95184 10.8449 0)
(-1.52364 11.0661 0)
(-1.52364 11.0661 0)
(-1.97981 10.956 0)
(-1.97981 10.956 0)
(-1.54972 11.1789 0)
(-1.54972 11.1789 0)
(-2.00807 11.0677 0)
(-2.00807 11.0677 0)
(-1.57606 11.2922 0)
(-1.57606 11.2922 0)
(-2.0366 11.1799 0)
(-2.0366 11.1799 0)
(-1.60268 11.4061 0)
(-1.60268 11.4061 0)
(-2.0654 11.2926 0)
(-2.0654 11.2926 0)
(-1.6296 11.5205 0)
(-1.6296 11.5205 0)
(-2.09449 11.4059 0)
(-2.09449 11.4059 0)
(-1.65678 11.6354 0)
(-1.65678 11.6354 0)
(-2.12385 11.5196 0)
(-2.12385 11.5196 0)
(-1.68425 11.7509 0)
(-1.68425 11.7509 0)
(-2.15348 11.634 0)
(-2.15348 11.634 0)
(-1.71202 11.8669 0)
(-1.71202 11.8669 0)
(-2.18341 11.7488 0)
(-2.18341 11.7488 0)
(-1.74005 11.9834 0)
(-1.74005 11.9834 0)
(-2.21361 11.8642 0)
(-2.21361 11.8642 0)
(-1.76839 12.1006 0)
(-1.76839 12.1006 0)
(-2.24411 11.9802 0)
(-2.24411 11.9802 0)
(-1.797 12.2181 0)
(-1.797 12.2181 0)
(-2.27488 12.0966 0)
(-2.27488 12.0966 0)
(-1.8259 12.3363 0)
(-1.8259 12.3363 0)
(-2.30593 12.2135 0)
(-2.30593 12.2135 0)
(-1.85511 12.455 0)
(-1.85511 12.455 0)
(-2.33729 12.331 0)
(-2.33729 12.331 0)
(-1.88459 12.5742 0)
(-1.88459 12.5742 0)
(-2.36892 12.449 0)
(-2.36892 12.449 0)
(-1.91437 12.6939 0)
(-1.91437 12.6939 0)
(-2.40084 12.5676 0)
(-2.40084 12.5676 0)
(-1.94445 12.8142 0)
(-1.94445 12.8142 0)
(-2.43307 12.6867 0)
(-2.43307 12.6867 0)
(-1.97482 12.9349 0)
(-1.97482 12.9349 0)
(-2.46558 12.8062 0)
(-2.46558 12.8062 0)
(-2.00549 13.0563 0)
(-2.00549 13.0563 0)
(-2.49839 12.9264 0)
(-2.49839 12.9264 0)
(-2.03646 13.1781 0)
(-2.03646 13.1781 0)
(-2.53149 13.047 0)
(-2.53149 13.047 0)
(-2.06772 13.3005 0)
(-2.06772 13.3005 0)
(-2.56488 13.1681 0)
(-2.56488 13.1681 0)
(-2.09929 13.4234 0)
(-2.09929 13.4234 0)
(-2.59858 13.2898 0)
(-2.59858 13.2898 0)
(-2.13116 13.5468 0)
(-2.13116 13.5468 0)
(-2.63257 13.412 0)
(-2.63257 13.412 0)
(-2.16333 13.6707 0)
(-2.16333 13.6707 0)
(-2.66687 13.5347 0)
(-2.66687 13.5347 0)
(-2.19581 13.7952 0)
(-2.19581 13.7952 0)
(-2.70147 13.6579 0)
(-2.70147 13.6579 0)
(-2.22859 13.9202 0)
(-2.22859 13.9202 0)
(-2.73637 13.7817 0)
(-2.73637 13.7817 0)
(-2.26168 14.0457 0)
(-2.26168 14.0457 0)
(-2.77157 13.9059 0)
(-2.77157 13.9059 0)
(-2.29509 14.1717 0)
(-2.29509 14.1717 0)
(-2.80709 14.0307 0)
(-2.80709 14.0307 0)
(-2.3288 14.2983 0)
(-2.3288 14.2983 0)
(-2.8429 14.156 0)
(-2.8429 14.156 0)
(-2.36283 14.4254 0)
(-2.36283 14.4254 0)
(-2.87903 14.2818 0)
(-2.87903 14.2818 0)
(-2.39716 14.5529 0)
(-2.39716 14.5529 0)
(-2.91546 14.4081 0)
(-2.91546 14.4081 0)
(-2.4318 14.681 0)
(-2.4318 14.681 0)
(-2.9522 14.5349 0)
(-2.9522 14.5349 0)
(-2.46677 14.8097 0)
(-2.46677 14.8097 0)
(-2.98927 14.6623 0)
(-2.98927 14.6623 0)
(-2.50205 14.9388 0)
(-2.50205 14.9388 0)
(-3.02663 14.7902 0)
(-3.02663 14.7902 0)
(-2.53764 15.0684 0)
(-2.53764 15.0684 0)
(-3.06431 14.9185 0)
(-3.06431 14.9185 0)
(-2.57356 15.1986 0)
(-2.57356 15.1986 0)
(-3.10232 15.0474 0)
(-3.10232 15.0474 0)
(-2.60979 15.3293 0)
(-2.60979 15.3293 0)
(-3.14064 15.1768 0)
(-3.14064 15.1768 0)
(-2.64636 15.4605 0)
(-2.64636 15.4605 0)
(-3.17928 15.3067 0)
(-3.17928 15.3067 0)
(-2.68323 15.5922 0)
(-2.68323 15.5922 0)
(-3.21823 15.4371 0)
(-3.21823 15.4371 0)
(-2.72043 15.7244 0)
(-2.72043 15.7244 0)
(-3.2575 15.568 0)
(-3.2575 15.568 0)
(-2.75797 15.8572 0)
(-2.75797 15.8572 0)
(-3.29711 15.6994 0)
(-3.29711 15.6994 0)
(-2.79582 15.9904 0)
(-2.79582 15.9904 0)
(-3.33703 15.8313 0)
(-3.33703 15.8313 0)
(-2.834 16.1241 0)
(-2.834 16.1241 0)
(-3.37726 15.9637 0)
(-3.37726 15.9637 0)
(-2.87252 16.2584 0)
(-2.87252 16.2584 0)
(-3.41785 16.0967 0)
(-3.41785 16.0967 0)
(-2.91136 16.3932 0)
(-2.91136 16.3932 0)
(-3.45874 16.2301 0)
(-3.45874 16.2301 0)
(-2.95054 16.5285 0)
(-2.95054 16.5285 0)
(-3.49997 16.364 0)
(-3.49997 16.364 0)
(-2.99004 16.6642 0)
(-2.99004 16.6642 0)
(-3.54152 16.4984 0)
(-3.54152 16.4984 0)
(-3.02988 16.8005 0)
(-3.02988 16.8005 0)
(-3.5834 16.6333 0)
(-3.5834 16.6333 0)
(-3.07006 16.9373 0)
(-3.07006 16.9373 0)
(-3.62563 16.7688 0)
(-3.62563 16.7688 0)
(-3.11057 17.0746 0)
(-3.11057 17.0746 0)
(-3.66818 16.9047 0)
(-3.66818 16.9047 0)
(-3.15141 17.2124 0)
(-3.15141 17.2124 0)
(-3.71105 17.0411 0)
(-3.71105 17.0411 0)
(-3.19261 17.3507 0)
(-3.19261 17.3507 0)
(-3.75429 17.1781 0)
(-3.75429 17.1781 0)
(-3.23413 17.4895 0)
(-3.23413 17.4895 0)
(-3.79784 17.3155 0)
(-3.79784 17.3155 0)
(-3.27599 17.6288 0)
(-3.27599 17.6288 0)
(-3.84172 17.4533 0)
(-3.84172 17.4533 0)
(-3.31822 17.7686 0)
(-3.31822 17.7686 0)
(-3.88597 17.5918 0)
(-3.88597 17.5918 0)
(-3.36077 17.9089 0)
(-3.36077 17.9089 0)
(-3.93054 17.7307 0)
(-3.93054 17.7307 0)
(-3.40368 18.0497 0)
(-3.40368 18.0497 0)
(-3.97546 17.8701 0)
(-3.97546 17.8701 0)
(-3.44692 18.1909 0)
(-3.44692 18.1909 0)
(-4.02072 18.0099 0)
(-4.02072 18.0099 0)
(-3.4905 18.3327 0)
(-3.4905 18.3327 0)
(-4.06631 18.1503 0)
(-4.06631 18.1503 0)
(-3.53446 18.475 0)
(-3.53446 18.475 0)
(-4.11227 18.2912 0)
(-4.11227 18.2912 0)
(-3.57874 18.6178 0)
(-3.57874 18.6178 0)
(-4.15856 18.4325 0)
(-4.15856 18.4325 0)
(-3.62338 18.761 0)
(-3.62338 18.761 0)
(-4.20519 18.5743 0)
(-4.20519 18.5743 0)
(-3.66839 18.9048 0)
(-3.66839 18.9048 0)
(-4.25219 18.7167 0)
(-4.25219 18.7167 0)
(-3.71373 19.049 0)
(-3.71373 19.049 0)
(-4.29953 18.8595 0)
(-4.29953 18.8595 0)
(-3.75945 19.1938 0)
(-3.75945 19.1938 0)
(-4.34723 19.0028 0)
(-4.34723 19.0028 0)
(-3.8055 19.339 0)
(-3.8055 19.339 0)
(-4.39527 19.1466 0)
(-4.39527 19.1466 0)
(-3.85191 19.4847 0)
(-3.85191 19.4847 0)
(-4.44366 19.2909 0)
(-4.44366 19.2909 0)
(-3.89869 19.631 0)
(-3.89869 19.631 0)
(-4.49242 19.4356 0)
(-4.49242 19.4356 0)
(-3.94582 19.7776 0)
(-3.94582 19.7776 0)
(-4.54152 19.5809 0)
(-4.54152 19.5809 0)
(-3.99331 19.9248 0)
(-3.99331 19.9248 0)
(-4.59098 19.7265 0)
(-4.59098 19.7265 0)
(-4.04118 20.0725 0)
(-4.04118 20.0725 0)
(-4.64081 19.8728 0)
(-4.64081 19.8728 0)
(-4.08939 20.2206 0)
(-4.08939 20.2206 0)
(-4.69099 20.0194 0)
(-4.69099 20.0194 0)
(-4.13797 20.3692 0)
(-4.13797 20.3692 0)
(-4.74152 20.1666 0)
(-4.74152 20.1666 0)
(-4.18693 20.5184 0)
(-4.18693 20.5184 0)
(-4.79244 20.3142 0)
(-4.79244 20.3142 0)
(-4.23624 20.668 0)
(-4.23624 20.668 0)
(-4.8437 20.4623 0)
(-4.8437 20.4623 0)
(-4.28594 20.8181 0)
(-4.28594 20.8181 0)
(-4.89535 20.611 0)
(-4.89535 20.611 0)
(-4.33598 20.9686 0)
(-4.33598 20.9686 0)
(-4.94734 20.76 0)
(-4.94734 20.76 0)
(-4.3864 21.1197 0)
(-4.3864 21.1197 0)
(-4.99969 20.9095 0)
(-4.99969 20.9095 0)
(-4.4372 21.2712 0)
(-4.4372 21.2712 0)
(-5.05244 21.0596 0)
(-5.05244 21.0596 0)
(-4.48836 21.4232 0)
(-4.48836 21.4232 0)
(-5.10553 21.21 0)
(-5.10553 21.21 0)
(-4.53989 21.5756 0)
(-4.53989 21.5756 0)
(-5.15899 21.3609 0)
(-5.15899 21.3609 0)
(-4.59182 21.7286 0)
(-4.59182 21.7286 0)
(-5.21284 21.5124 0)
(-5.21284 21.5124 0)
(-4.64411 21.882 0)
(-4.64411 21.882 0)
(-5.26705 21.6643 0)
(-5.26705 21.6643 0)
(-4.69679 22.0359 0)
(-4.69679 22.0359 0)
(-5.32165 21.8167 0)
(-5.32165 21.8167 0)
(-4.74983 22.1903 0)
(-4.74983 22.1903 0)
(-5.3766 21.9695 0)
(-5.3766 21.9695 0)
(-4.80324 22.3451 0)
(-4.80324 22.3451 0)
(-5.43193 22.1228 0)
(-5.43193 22.1228 0)
(-4.85706 22.5004 0)
(-4.85706 22.5004 0)
(-5.48766 22.2766 0)
(-5.48766 22.2766 0)
(-4.91124 22.6562 0)
(-4.91124 22.6562 0)
(-5.54374 22.4308 0)
(-5.54374 22.4308 0)
(-4.96581 22.8124 0)
(-4.96581 22.8124 0)
(-5.6002 22.5854 0)
(-5.6002 22.5854 0)
(-5.02078 22.9692 0)
(-5.02078 22.9692 0)
(-5.65707 22.7406 0)
(-5.65707 22.7406 0)
(-5.07611 23.1263 0)
(-5.07611 23.1263 0)
(-5.71429 22.8962 0)
(-5.71429 22.8962 0)
(-5.13185 23.284 0)
(-5.13185 23.284 0)
(-5.77192 23.0524 0)
(-5.77192 23.0524 0)
(-5.18796 23.4421 0)
(-5.18796 23.4421 0)
(-5.82991 23.2089 0)
(-5.82991 23.2089 0)
(-5.24445 23.6007 0)
(-5.24445 23.6007 0)
(-5.88828 23.3658 0)
(-5.88828 23.3658 0)
(-5.30136 23.7598 0)
(-5.30136 23.7598 0)
(-5.94707 23.5233 0)
(-5.94707 23.5233 0)
(-5.35863 23.9192 0)
(-5.35863 23.9192 0)
(-6.00621 23.6812 0)
(-6.00621 23.6812 0)
(-5.4163 24.0792 0)
(-5.4163 24.0792 0)
(-6.06575 23.8396 0)
(-6.06575 23.8396 0)
(-5.47438 24.2396 0)
(-5.47438 24.2396 0)
(-6.1257 23.9985 0)
(-6.1257 23.9985 0)
(-5.53284 24.4005 0)
(-5.53284 24.4005 0)
(-6.18601 24.1577 0)
(-6.18601 24.1577 0)
(-5.59169 24.5618 0)
(-5.59169 24.5618 0)
(-6.24672 24.3174 0)
(-6.24672 24.3174 0)
(-5.65096 24.7237 0)
(-5.65096 24.7237 0)
(-6.30784 24.4777 0)
(-6.30784 24.4777 0)
(-5.7106 24.8859 0)
(-5.7106 24.8859 0)
(-6.36933 24.6383 0)
(-6.36933 24.6383 0)
(-5.77067 25.0487 0)
(-5.77067 25.0487 0)
(-6.43124 24.7994 0)
(-6.43124 24.7994 0)
(-5.83111 25.2118 0)
(-5.83111 25.2118 0)
(-6.49353 24.9609 0)
(-6.49353 24.9609 0)
(-5.89196 25.3754 0)
(-5.89196 25.3754 0)
(-6.55621 25.1229 0)
(-6.55621 25.1229 0)
(-5.95323 25.5395 0)
(-5.95323 25.5395 0)
(-6.61931 25.2854 0)
(-6.61931 25.2854 0)
(-6.01487 25.704 0)
(-6.01487 25.704 0)
(-6.68279 25.4483 0)
(-6.68279 25.4483 0)
(-6.07693 25.869 0)
(-6.07693 25.869 0)
(-6.74667 25.6116 0)
(-6.74667 25.6116 0)
(-6.13941 26.0344 0)
(-6.13941 26.0344 0)
(-6.81097 25.7754 0)
(-6.81097 25.7754 0)
(-6.20228 26.2003 0)
(-6.20228 26.2003 0)
(-6.87565 25.9396 0)
(-6.87565 25.9396 0)
(-6.26557 26.3666 0)
(-6.26557 26.3666 0)
(-6.94076 26.1043 0)
(-6.94076 26.1043 0)
(-6.32926 26.5334 0)
(-6.32926 26.5334 0)
(-7.00625 26.2694 0)
(-7.00625 26.2694 0)
(-6.39335 26.7006 0)
(-6.39335 26.7006 0)
(-7.07215 26.4349 0)
(-7.07215 26.4349 0)
(-6.45787 26.8683 0)
(-6.45787 26.8683 0)
(-7.13848 26.6009 0)
(-7.13848 26.6009 0)
(-6.52279 27.0364 0)
(-6.52279 27.0364 0)
(-7.20519 26.7673 0)
(-7.20519 26.7673 0)
(-6.58812 27.2049 0)
(-6.58812 27.2049 0)
(-7.2723 26.9342 0)
(-7.2723 26.9342 0)
(-6.65388 27.3739 0)
(-6.65388 27.3739 0)
(-7.33986 27.1015 0)
(-7.33986 27.1015 0)
(-6.72004 27.5433 0)
(-6.72004 27.5433 0)
(-7.4078 27.2692 0)
(-7.4078 27.2692 0)
(-6.78661 27.7131 0)
(-6.78661 27.7131 0)
(-7.47615 27.4374 0)
(-7.47615 27.4374 0)
(-6.85363 27.8835 0)
(-6.85363 27.8835 0)
(-7.54495 27.606 0)
(-7.54495 27.606 0)
(-6.92104 28.0542 0)
(-6.92104 28.0542 0)
(-7.61413 27.7751 0)
(-7.61413 27.7751 0)
(-6.98889 28.2254 0)
(-6.98889 28.2254 0)
(-7.68375 27.9446 0)
(-7.68375 27.9446 0)
(-7.05714 28.397 0)
(-7.05714 28.397 0)
(-7.75376 28.1145 0)
(-7.75376 28.1145 0)
(-7.12581 28.569 0)
(-7.12581 28.569 0)
(-7.82419 28.2848 0)
(-7.82419 28.2848 0)
(-7.19493 28.7416 0)
(-7.19493 28.7416 0)
(-7.89507 28.4556 0)
(-7.89507 28.4556 0)
(-7.26445 28.9144 0)
(-7.26445 28.9144 0)
(-7.96633 28.6267 0)
(-7.96633 28.6267 0)
(-7.33439 29.0878 0)
(-7.33439 29.0878 0)
(-8.03802 28.7983 0)
(-8.03802 28.7983 0)
(-7.40479 29.2616 0)
(-7.40479 29.2616 0)
(-8.11016 28.9704 0)
(-8.11016 28.9704 0)
(-7.47558 29.4358 0)
(-7.47558 29.4358 0)
(-8.18269 29.1429 0)
(-8.18269 29.1429 0)
)
;

boundaryField
{
    left
    {
        type            calculated;
    }
    right
    {
        type            calculated;
    }
    beam
    {
        type            empty;
    }
}


// ************************************************************************* //
