/*--------------------------------*- C++ -*----------------------------------*\
| =========                 |                                                 |
| \\      /  F ield         | foam-extend: Open Source CFD                    |
|  \\    /   O peration     | Version:     4.1                                |
|   \\  /    A nd           | Web:         http://www.foam-extend.org         |
|    \\/     M anipulation  |                                                 |
\*---------------------------------------------------------------------------*/
FoamFile
{
    version     2.0;
    format      ascii;
    class       surfaceTensorField;
    location    "0";
    object      refLambda;
}
// * * * * * * * * * * * * * * * * * * * * * * * * * * * * * * * * * * * * * //

dimensions      [0 0 0 0 0 0 0];

internalField   nonuniform List<tensor> 
319
(
(0.999997 -0.00245437 0 0.00245437 0.999997 0 0 0 1)
(0.999988 -0.00490872 0 0.00490872 0.999988 0 0 0 1)
(0.999973 -0.00736304 0 0.00736304 0.999973 0 0 0 1)
(0.999952 -0.00981732 0 0.00981732 0.999952 0 0 0 1)
(0.999925 -0.0122715 0 0.0122715 0.999925 0 0 0 1)
(0.999892 -0.0147257 0 0.0147257 0.999892 0 0 0 1)
(0.999852 -0.0171798 0 0.0171798 0.999852 0 0 0 1)
(0.999807 -0.0196337 0 0.0196337 0.999807 0 0 0 1)
(0.999756 -0.0220875 0 0.0220875 0.999756 0 0 0 1)
(0.999699 -0.0245412 0 0.0245412 0.999699 0 0 0 1)
(0.999636 -0.0269948 0 0.0269948 0.999636 0 0 0 1)
(0.999566 -0.0294481 0 0.0294481 0.999566 0 0 0 1)
(0.999491 -0.0319014 0 0.0319014 0.999491 0 0 0 1)
(0.99941 -0.0343544 0 0.0343544 0.99941 0 0 0 1)
(0.999322 -0.0368072 0 0.0368072 0.999322 0 0 0 1)
(0.999229 -0.0392598 0 0.0392598 0.999229 0 0 0 1)
(0.99913 -0.0417122 0 0.0417122 0.99913 0 0 0 1)
(0.999024 -0.0441642 0 0.0441642 0.999024 0 0 0 1)
(0.998913 -0.0466161 0 0.0466161 0.998913 0 0 0 1)
(0.998795 -0.0490677 0 0.0490677 0.998795 0 0 0 1)
(0.998672 -0.051519 0 0.051519 0.998672 0 0 0 1)
(0.998543 -0.0539699 0 0.0539699 0.998543 0 0 0 1)
(0.998407 -0.0564205 0 0.0564205 0.998407 0 0 0 1)
(0.998266 -0.0588709 0 0.0588709 0.998266 0 0 0 1)
(0.998118 -0.0613207 0 0.0613207 0.998118 0 0 0 1)
(0.997965 -0.0637703 0 0.0637703 0.997965 0 0 0 1)
(0.997805 -0.0662195 0 0.0662195 0.997805 0 0 0 1)
(0.99764 -0.0686682 0 0.0686682 0.99764 0 0 0 1)
(0.997468 -0.0711166 0 0.0711166 0.997468 0 0 0 1)
(0.99729 -0.0735646 0 0.0735646 0.99729 0 0 0 1)
(0.997107 -0.076012 0 0.076012 0.997107 0 0 0 1)
(0.996917 -0.0784591 0 0.0784591 0.996917 0 0 0 1)
(0.996722 -0.0809057 0 0.0809057 0.996722 0 0 0 1)
(0.99652 -0.0833518 0 0.0833518 0.99652 0 0 0 1)
(0.996313 -0.0857973 0 0.0857973 0.996313 0 0 0 1)
(0.996099 -0.0882424 0 0.0882424 0.996099 0 0 0 1)
(0.995879 -0.090687 0 0.090687 0.995879 0 0 0 1)
(0.995654 -0.0931309 0 0.0931309 0.995654 0 0 0 1)
(0.995422 -0.0955743 0 0.0955743 0.995422 0 0 0 1)
(0.995185 -0.0980172 0 0.0980172 0.995185 0 0 0 1)
(0.994941 -0.100459 0 0.100459 0.994941 0 0 0 1)
(0.994692 -0.102902 0 0.102902 0.994692 0 0 0 1)
(0.994436 -0.105342 0 0.105342 0.994436 0 0 0 1)
(0.994175 -0.107782 0 0.107782 0.994175 0 0 0 1)
(0.993907 -0.110223 0 0.110223 0.993907 0 0 0 1)
(0.993633 -0.112661 0 0.112661 0.993633 0 0 0 1)
(0.993354 -0.115099 0 0.115099 0.993354 0 0 0 1)
(0.993068 -0.117538 0 0.117538 0.993068 0 0 0 1)
(0.992777 -0.119974 0 0.119974 0.992777 0 0 0 1)
(0.99248 -0.12241 0 0.12241 0.99248 0 0 0 1)
(0.992176 -0.124846 0 0.124846 0.992176 0 0 0 1)
(0.991867 -0.127281 0 0.127281 0.991867 0 0 0 1)
(0.991551 -0.129715 0 0.129715 0.991551 0 0 0 1)
(0.99123 -0.132148 0 0.132148 0.99123 0 0 0 1)
(0.990903 -0.13458 0 0.13458 0.990903 0 0 0 1)
(0.990569 -0.137013 0 0.137013 0.990569 0 0 0 1)
(0.99023 -0.139443 0 0.139443 0.99023 0 0 0 1)
(0.989885 -0.141873 0 0.141873 0.989885 0 0 0 1)
(0.989534 -0.144302 0 0.144302 0.989534 0 0 0 1)
(0.989177 -0.14673 0 0.14673 0.989177 0 0 0 1)
(0.988813 -0.149158 0 0.149158 0.988813 0 0 0 1)
(0.988444 -0.151584 0 0.151584 0.988444 0 0 0 1)
(0.988069 -0.15401 0 0.15401 0.988069 0 0 0 1)
(0.987688 -0.156435 0 0.156435 0.987688 0 0 0 1)
(0.987301 -0.158858 0 0.158858 0.987301 0 0 0 1)
(0.986909 -0.161281 0 0.161281 0.986909 0 0 0 1)
(0.98651 -0.163703 0 0.163703 0.98651 0 0 0 1)
(0.986105 -0.166123 0 0.166123 0.986105 0 0 0 1)
(0.985694 -0.168543 0 0.168543 0.985694 0 0 0 1)
(0.985278 -0.170962 0 0.170962 0.985278 0 0 0 1)
(0.984855 -0.173379 0 0.173379 0.984855 0 0 0 1)
(0.984426 -0.175797 0 0.175797 0.984426 0 0 0 1)
(0.983992 -0.178212 0 0.178212 0.983992 0 0 0 1)
(0.983552 -0.180626 0 0.180626 0.983552 0 0 0 1)
(0.983105 -0.18304 0 0.18304 0.983105 0 0 0 1)
(0.982653 -0.185452 0 0.185452 0.982653 0 0 0 1)
(0.982195 -0.187863 0 0.187863 0.982195 0 0 0 1)
(0.981731 -0.190274 0 0.190274 0.981731 0 0 0 1)
(0.981261 -0.192682 0 0.192682 0.981261 0 0 0 1)
(0.980785 -0.195091 0 0.195091 0.980785 0 0 0 1)
(0.980303 -0.197497 0 0.197497 0.980303 0 0 0 1)
(0.979816 -0.199902 0 0.199902 0.979816 0 0 0 1)
(0.979322 -0.202307 0 0.202307 0.979322 0 0 0 1)
(0.978823 -0.20471 0 0.20471 0.978823 0 0 0 1)
(0.978317 -0.207111 0 0.207111 0.978317 0 0 0 1)
(0.977806 -0.209512 0 0.209512 0.977806 0 0 0 1)
(0.977289 -0.211911 0 0.211911 0.977289 0 0 0 1)
(0.976766 -0.214309 0 0.214309 0.976766 0 0 0 1)
(0.976237 -0.216706 0 0.216706 0.976237 0 0 0 1)
(0.975702 -0.219101 0 0.219101 0.975702 0 0 0 1)
(0.975161 -0.221496 0 0.221496 0.975161 0 0 0 1)
(0.974615 -0.223888 0 0.223888 0.974615 0 0 0 1)
(0.974062 -0.226279 0 0.226279 0.974062 0 0 0 1)
(0.973504 -0.22867 0 0.22867 0.973504 0 0 0 1)
(0.97294 -0.231058 0 0.231058 0.97294 0 0 0 1)
(0.97237 -0.233445 0 0.233445 0.97237 0 0 0 1)
(0.971794 -0.235831 0 0.235831 0.971794 0 0 0 1)
(0.971212 -0.238216 0 0.238216 0.971212 0 0 0 1)
(0.970625 -0.240599 0 0.240599 0.970625 0 0 0 1)
(0.970031 -0.24298 0 0.24298 0.970031 0 0 0 1)
(0.969432 -0.24536 0 0.24536 0.969432 0 0 0 1)
(0.968827 -0.247739 0 0.247739 0.968827 0 0 0 1)
(0.968216 -0.250116 0 0.250116 0.968216 0 0 0 1)
(0.967599 -0.252491 0 0.252491 0.967599 0 0 0 1)
(0.966976 -0.254866 0 0.254866 0.966976 0 0 0 1)
(0.966348 -0.257238 0 0.257238 0.966348 0 0 0 1)
(0.965714 -0.25961 0 0.25961 0.965714 0 0 0 1)
(0.965074 -0.261979 0 0.261979 0.965074 0 0 0 1)
(0.964428 -0.264346 0 0.264346 0.964428 0 0 0 1)
(0.963776 -0.266713 0 0.266713 0.963776 0 0 0 1)
(0.963119 -0.269077 0 0.269077 0.963119 0 0 0 1)
(0.962455 -0.27144 0 0.27144 0.962455 0 0 0 1)
(0.961786 -0.273802 0 0.273802 0.961786 0 0 0 1)
(0.961111 -0.276162 0 0.276162 0.961111 0 0 0 1)
(0.960431 -0.278519 0 0.278519 0.960431 0 0 0 1)
(0.959744 -0.280876 0 0.280876 0.959744 0 0 0 1)
(0.959052 -0.283231 0 0.283231 0.959052 0 0 0 1)
(0.958354 -0.285584 0 0.285584 0.958354 0 0 0 1)
(0.95765 -0.287935 0 0.287935 0.95765 0 0 0 1)
(0.95694 -0.290284 0 0.290284 0.95694 0 0 0 1)
(0.956225 -0.292633 0 0.292633 0.956225 0 0 0 1)
(0.955504 -0.294979 0 0.294979 0.955504 0 0 0 1)
(0.954777 -0.297322 0 0.297322 0.954777 0 0 0 1)
(0.954044 -0.299666 0 0.299666 0.954044 0 0 0 1)
(0.953306 -0.302006 0 0.302006 0.953306 0 0 0 1)
(0.952562 -0.304345 0 0.304345 0.952562 0 0 0 1)
(0.951812 -0.306682 0 0.306682 0.951812 0 0 0 1)
(0.951057 -0.309017 0 0.309017 0.951057 0 0 0 1)
(0.950295 -0.311351 0 0.311351 0.950295 0 0 0 1)
(0.949528 -0.313682 0 0.313682 0.949528 0 0 0 1)
(0.948756 -0.316011 0 0.316011 0.948756 0 0 0 1)
(0.947977 -0.318339 0 0.318339 0.947977 0 0 0 1)
(0.947193 -0.320665 0 0.320665 0.947193 0 0 0 1)
(0.946403 -0.322988 0 0.322988 0.946403 0 0 0 1)
(0.945607 -0.32531 0 0.32531 0.945607 0 0 0 1)
(0.944806 -0.32763 0 0.32763 0.944806 0 0 0 1)
(0.943999 -0.329949 0 0.329949 0.943999 0 0 0 1)
(0.943186 -0.332264 0 0.332264 0.943186 0 0 0 1)
(0.942368 -0.334578 0 0.334578 0.942368 0 0 0 1)
(0.941544 -0.33689 0 0.33689 0.941544 0 0 0 1)
(0.940714 -0.3392 0 0.3392 0.940714 0 0 0 1)
(0.939879 -0.341507 0 0.341507 0.939879 0 0 0 1)
(0.939038 -0.343814 0 0.343814 0.939038 0 0 0 1)
(0.938191 -0.346117 0 0.346117 0.938191 0 0 0 1)
(0.937339 -0.348419 0 0.348419 0.937339 0 0 0 1)
(0.936481 -0.350718 0 0.350718 0.936481 0 0 0 1)
(0.935618 -0.353015 0 0.353015 0.935618 0 0 0 1)
(0.934748 -0.355311 0 0.355311 0.934748 0 0 0 1)
(0.933873 -0.357604 0 0.357604 0.933873 0 0 0 1)
(0.932993 -0.359895 0 0.359895 0.932993 0 0 0 1)
(0.932107 -0.362184 0 0.362184 0.932107 0 0 0 1)
(0.931215 -0.36447 0 0.36447 0.931215 0 0 0 1)
(0.930318 -0.366755 0 0.366755 0.930318 0 0 0 1)
(0.929415 -0.369037 0 0.369037 0.929415 0 0 0 1)
(0.928506 -0.371317 0 0.371317 0.928506 0 0 0 1)
(0.927592 -0.373595 0 0.373595 0.927592 0 0 0 1)
(0.926672 -0.375871 0 0.375871 0.926672 0 0 0 1)
(0.925747 -0.378144 0 0.378144 0.925747 0 0 0 1)
(0.924816 -0.380415 0 0.380415 0.924816 0 0 0 1)
(0.92388 -0.382683 0 0.382683 0.92388 0 0 0 1)
(0.922938 -0.384949 0 0.384949 0.922938 0 0 0 1)
(0.92199 -0.387214 0 0.387214 0.92199 0 0 0 1)
(0.921037 -0.389476 0 0.389476 0.921037 0 0 0 1)
(0.920078 -0.391735 0 0.391735 0.920078 0 0 0 1)
(0.919114 -0.393992 0 0.393992 0.919114 0 0 0 1)
(0.918144 -0.396247 0 0.396247 0.918144 0 0 0 1)
(0.917169 -0.398499 0 0.398499 0.917169 0 0 0 1)
(0.916188 -0.400749 0 0.400749 0.916188 0 0 0 1)
(0.915202 -0.402996 0 0.402996 0.915202 0 0 0 1)
(0.91421 -0.405242 0 0.405242 0.91421 0 0 0 1)
(0.913212 -0.407484 0 0.407484 0.913212 0 0 0 1)
(0.912209 -0.409725 0 0.409725 0.912209 0 0 0 1)
(0.911201 -0.411962 0 0.411962 0.911201 0 0 0 1)
(0.910187 -0.414197 0 0.414197 0.910187 0 0 0 1)
(0.909168 -0.41643 0 0.41643 0.909168 0 0 0 1)
(0.908143 -0.41866 0 0.41866 0.908143 0 0 0 1)
(0.907113 -0.420887 0 0.420887 0.907113 0 0 0 1)
(0.906077 -0.423113 0 0.423113 0.906077 0 0 0 1)
(0.905036 -0.425335 0 0.425335 0.905036 0 0 0 1)
(0.903989 -0.427555 0 0.427555 0.903989 0 0 0 1)
(0.902937 -0.429773 0 0.429773 0.902937 0 0 0 1)
(0.90188 -0.431987 0 0.431987 0.90188 0 0 0 1)
(0.900816 -0.4342 0 0.4342 0.900816 0 0 0 1)
(0.899748 -0.436409 0 0.436409 0.899748 0 0 0 1)
(0.898675 -0.438616 0 0.438616 0.898675 0 0 0 1)
(0.897595 -0.440821 0 0.440821 0.897595 0 0 0 1)
(0.896511 -0.443022 0 0.443022 0.896511 0 0 0 1)
(0.895421 -0.445221 0 0.445221 0.895421 0 0 0 1)
(0.894325 -0.447418 0 0.447418 0.894325 0 0 0 1)
(0.893224 -0.449611 0 0.449611 0.893224 0 0 0 1)
(0.892118 -0.451803 0 0.451803 0.892118 0 0 0 1)
(0.891006 -0.453991 0 0.453991 0.891006 0 0 0 1)
(0.88989 -0.456176 0 0.456176 0.88989 0 0 0 1)
(0.888767 -0.458359 0 0.458359 0.888767 0 0 0 1)
(0.88764 -0.460539 0 0.460539 0.88764 0 0 0 1)
(0.886507 -0.462716 0 0.462716 0.886507 0 0 0 1)
(0.885368 -0.464891 0 0.464891 0.885368 0 0 0 1)
(0.884225 -0.467062 0 0.467062 0.884225 0 0 0 1)
(0.883076 -0.46923 0 0.46923 0.883076 0 0 0 1)
(0.881921 -0.471397 0 0.471397 0.881921 0 0 0 1)
(0.880762 -0.47356 0 0.47356 0.880762 0 0 0 1)
(0.879596 -0.475721 0 0.475721 0.879596 0 0 0 1)
(0.878426 -0.477878 0 0.477878 0.878426 0 0 0 1)
(0.877251 -0.480032 0 0.480032 0.877251 0 0 0 1)
(0.87607 -0.482184 0 0.482184 0.87607 0 0 0 1)
(0.874884 -0.484333 0 0.484333 0.874884 0 0 0 1)
(0.873693 -0.486478 0 0.486478 0.873693 0 0 0 1)
(0.872496 -0.488622 0 0.488622 0.872496 0 0 0 1)
(0.871294 -0.490761 0 0.490761 0.871294 0 0 0 1)
(0.870087 -0.492899 0 0.492899 0.870087 0 0 0 1)
(0.868875 -0.495032 0 0.495032 0.868875 0 0 0 1)
(0.867657 -0.497163 0 0.497163 0.867657 0 0 0 1)
(0.866434 -0.499292 0 0.499292 0.866434 0 0 0 1)
(0.865206 -0.501416 0 0.501416 0.865206 0 0 0 1)
(0.863973 -0.503538 0 0.503538 0.863973 0 0 0 1)
(0.862734 -0.505658 0 0.505658 0.862734 0 0 0 1)
(0.861491 -0.507773 0 0.507773 0.861491 0 0 0 1)
(0.860242 -0.509886 0 0.509886 0.860242 0 0 0 1)
(0.858988 -0.511996 0 0.511996 0.858988 0 0 0 1)
(0.857729 -0.514103 0 0.514103 0.857729 0 0 0 1)
(0.856464 -0.516207 0 0.516207 0.856464 0 0 0 1)
(0.855195 -0.518307 0 0.518307 0.855195 0 0 0 1)
(0.85392 -0.520404 0 0.520404 0.85392 0 0 0 1)
(0.85264 -0.522499 0 0.522499 0.85264 0 0 0 1)
(0.851355 -0.52459 0 0.52459 0.851355 0 0 0 1)
(0.850065 -0.526677 0 0.526677 0.850065 0 0 0 1)
(0.84877 -0.528763 0 0.528763 0.84877 0 0 0 1)
(0.84747 -0.530844 0 0.530844 0.84747 0 0 0 1)
(0.846164 -0.532923 0 0.532923 0.846164 0 0 0 1)
(0.844853 -0.534998 0 0.534998 0.844853 0 0 0 1)
(0.843538 -0.537069 0 0.537069 0.843538 0 0 0 1)
(0.842217 -0.539139 0 0.539139 0.842217 0 0 0 1)
(0.840891 -0.541204 0 0.541204 0.840891 0 0 0 1)
(0.839561 -0.543266 0 0.543266 0.839561 0 0 0 1)
(0.838225 -0.545325 0 0.545325 0.838225 0 0 0 1)
(0.836884 -0.547381 0 0.547381 0.836884 0 0 0 1)
(0.835537 -0.549434 0 0.549434 0.835537 0 0 0 1)
(0.834187 -0.551482 0 0.551482 0.834187 0 0 0 1)
(0.832831 -0.553528 0 0.553528 0.832831 0 0 0 1)
(0.831469 -0.555571 0 0.555571 0.831469 0 0 0 1)
(0.830103 -0.557609 0 0.557609 0.830103 0 0 0 1)
(0.828733 -0.559645 0 0.559645 0.828733 0 0 0 1)
(0.827356 -0.561678 0 0.561678 0.827356 0 0 0 1)
(0.825975 -0.563706 0 0.563706 0.825975 0 0 0 1)
(0.824589 -0.565732 0 0.565732 0.824589 0 0 0 1)
(0.823198 -0.567754 0 0.567754 0.823198 0 0 0 1)
(0.821802 -0.569773 0 0.569773 0.821802 0 0 0 1)
(0.820401 -0.571788 0 0.571788 0.820401 0 0 0 1)
(0.818995 -0.5738 0 0.5738 0.818995 0 0 0 1)
(0.817585 -0.575808 0 0.575808 0.817585 0 0 0 1)
(0.816169 -0.577813 0 0.577813 0.816169 0 0 0 1)
(0.814748 -0.579815 0 0.579815 0.814748 0 0 0 1)
(0.813323 -0.581812 0 0.581812 0.813323 0 0 0 1)
(0.811892 -0.583807 0 0.583807 0.811892 0 0 0 1)
(0.810457 -0.585798 0 0.585798 0.810457 0 0 0 1)
(0.809017 -0.587786 0 0.587786 0.809017 0 0 0 1)
(0.807572 -0.589769 0 0.589769 0.807572 0 0 0 1)
(0.806122 -0.591749 0 0.591749 0.806122 0 0 0 1)
(0.804667 -0.593727 0 0.593727 0.804667 0 0 0 1)
(0.803207 -0.595699 0 0.595699 0.803207 0 0 0 1)
(0.801743 -0.597669 0 0.597669 0.801743 0 0 0 1)
(0.800274 -0.599635 0 0.599635 0.800274 0 0 0 1)
(0.7988 -0.601597 0 0.601597 0.7988 0 0 0 1)
(0.797321 -0.603556 0 0.603556 0.797321 0 0 0 1)
(0.795837 -0.605511 0 0.605511 0.795837 0 0 0 1)
(0.794348 -0.607462 0 0.607462 0.794348 0 0 0 1)
(0.792855 -0.609411 0 0.609411 0.792855 0 0 0 1)
(0.791357 -0.611355 0 0.611355 0.791357 0 0 0 1)
(0.789854 -0.613295 0 0.613295 0.789854 0 0 0 1)
(0.788346 -0.615232 0 0.615232 0.788346 0 0 0 1)
(0.786834 -0.617165 0 0.617165 0.786834 0 0 0 1)
(0.785317 -0.619094 0 0.619094 0.785317 0 0 0 1)
(0.783795 -0.62102 0 0.62102 0.783795 0 0 0 1)
(0.782269 -0.622941 0 0.622941 0.782269 0 0 0 1)
(0.780737 -0.62486 0 0.62486 0.780737 0 0 0 1)
(0.779201 -0.626774 0 0.626774 0.779201 0 0 0 1)
(0.777661 -0.628684 0 0.628684 0.777661 0 0 0 1)
(0.776115 -0.630592 0 0.630592 0.776115 0 0 0 1)
(0.774565 -0.632494 0 0.632494 0.774565 0 0 0 1)
(0.773011 -0.634393 0 0.634393 0.773011 0 0 0 1)
(0.771451 -0.636289 0 0.636289 0.771451 0 0 0 1)
(0.769887 -0.63818 0 0.63818 0.769887 0 0 0 1)
(0.768318 -0.640068 0 0.640068 0.768318 0 0 0 1)
(0.766745 -0.641952 0 0.641952 0.766745 0 0 0 1)
(0.765167 -0.643831 0 0.643831 0.765167 0 0 0 1)
(0.763584 -0.645708 0 0.645708 0.763584 0 0 0 1)
(0.761998 -0.64758 0 0.64758 0.761998 0 0 0 1)
(0.760406 -0.649448 0 0.649448 0.760406 0 0 0 1)
(0.758809 -0.651313 0 0.651313 0.758809 0 0 0 1)
(0.757209 -0.653173 0 0.653173 0.757209 0 0 0 1)
(0.755604 -0.655029 0 0.655029 0.755604 0 0 0 1)
(0.753993 -0.656882 0 0.656882 0.753993 0 0 0 1)
(0.752379 -0.65873 0 0.65873 0.752379 0 0 0 1)
(0.75076 -0.660576 0 0.660576 0.75076 0 0 0 1)
(0.749136 -0.662416 0 0.662416 0.749136 0 0 0 1)
(0.747508 -0.664252 0 0.664252 0.747508 0 0 0 1)
(0.745875 -0.666085 0 0.666085 0.745875 0 0 0 1)
(0.744239 -0.667914 0 0.667914 0.744239 0 0 0 1)
(0.742597 -0.669738 0 0.669738 0.742597 0 0 0 1)
(0.740951 -0.671559 0 0.671559 0.740951 0 0 0 1)
(0.739301 -0.673376 0 0.673376 0.739301 0 0 0 1)
(0.737645 -0.675188 0 0.675188 0.737645 0 0 0 1)
(0.735986 -0.676997 0 0.676997 0.735986 0 0 0 1)
(0.734323 -0.678801 0 0.678801 0.734323 0 0 0 1)
(0.732654 -0.680601 0 0.680601 0.732654 0 0 0 1)
(0.730982 -0.682397 0 0.682397 0.730982 0 0 0 1)
(0.729305 -0.684189 0 0.684189 0.729305 0 0 0 1)
(0.727623 -0.685977 0 0.685977 0.727623 0 0 0 1)
(0.725937 -0.687761 0 0.687761 0.725937 0 0 0 1)
(0.724247 -0.68954 0 0.68954 0.724247 0 0 0 1)
(0.722552 -0.691316 0 0.691316 0.722552 0 0 0 1)
(0.720854 -0.693087 0 0.693087 0.720854 0 0 0 1)
(0.71915 -0.694855 0 0.694855 0.71915 0 0 0 1)
(0.717443 -0.696618 0 0.696618 0.717443 0 0 0 1)
(0.715731 -0.698376 0 0.698376 0.715731 0 0 0 1)
(0.714014 -0.700131 0 0.700131 0.714014 0 0 0 1)
(0.712294 -0.701881 0 0.701881 0.712294 0 0 0 1)
(0.710569 -0.703627 0 0.703627 0.710569 0 0 0 1)
(0.70884 -0.705369 0 0.705369 0.70884 0 0 0 1)
)
;

boundaryField
{
    left
    {
        type            calculated;
        value           uniform (1 -0 0 0 1 0 0 0 1);
    }
    right
    {
        type            calculated;
        value           uniform (0.707107 -0.707107 0 0.707107 0.707107 0 0 0 1);
    }
    beam
    {
        type            empty;
    }
}


// ************************************************************************* //
