/*--------------------------------*- C++ -*----------------------------------*\
| =========                 |                                                 |
| \\      /  F ield         | foam-extend: Open Source CFD                    |
|  \\    /   O peration     | Version:     4.1                                |
|   \\  /    A nd           | Web:         http://www.foam-extend.org         |
|    \\/     M anipulation  |                                                 |
\*---------------------------------------------------------------------------*/
FoamFile
{
    version     2.0;
    format      ascii;
    class       volTensorField;
    location    "0";
    object      refRM;
}
// * * * * * * * * * * * * * * * * * * * * * * * * * * * * * * * * * * * * * //

dimensions      [0 0 0 0 0 0 0];

internalField   nonuniform List<tensor> 
320
(
(0.999999 -0.00122718 0 0.00122718 0.999999 0 0 0 1)
(0.999993 -0.00368155 0 0.00368155 0.999993 0 0 0 1)
(0.999981 -0.00613589 0 0.00613589 0.999981 0 0 0 1)
(0.999963 -0.00859019 0 0.00859019 0.999963 0 0 0 1)
(0.999939 -0.0110444 0 0.0110444 0.999939 0 0 0 1)
(0.999909 -0.0134986 0 0.0134986 0.999909 0 0 0 1)
(0.999873 -0.0159527 0 0.0159527 0.999873 0 0 0 1)
(0.999831 -0.0184068 0 0.0184068 0.999831 0 0 0 1)
(0.999782 -0.0208606 0 0.0208606 0.999782 0 0 0 1)
(0.999728 -0.0233144 0 0.0233144 0.999728 0 0 0 1)
(0.999668 -0.0257681 0 0.0257681 0.999668 0 0 0 1)
(0.999602 -0.0282215 0 0.0282215 0.999602 0 0 0 1)
(0.999529 -0.0306748 0 0.0306748 0.999529 0 0 0 1)
(0.999451 -0.0331279 0 0.0331279 0.999451 0 0 0 1)
(0.999367 -0.0355808 0 0.0355808 0.999367 0 0 0 1)
(0.999276 -0.0380335 0 0.0380335 0.999276 0 0 0 1)
(0.99918 -0.040486 0 0.040486 0.99918 0 0 0 1)
(0.999078 -0.0429383 0 0.0429383 0.999078 0 0 0 1)
(0.998969 -0.0453902 0 0.0453902 0.998969 0 0 0 1)
(0.998855 -0.0478419 0 0.0478419 0.998855 0 0 0 1)
(0.998734 -0.0502934 0 0.0502934 0.998734 0 0 0 1)
(0.998608 -0.0527445 0 0.0527445 0.998608 0 0 0 1)
(0.998476 -0.0551952 0 0.0551952 0.998476 0 0 0 1)
(0.998337 -0.0576457 0 0.0576457 0.998337 0 0 0 1)
(0.998193 -0.0600958 0 0.0600958 0.998193 0 0 0 1)
(0.998042 -0.0625456 0 0.0625456 0.998042 0 0 0 1)
(0.997886 -0.064995 0 0.064995 0.997886 0 0 0 1)
(0.997723 -0.0674439 0 0.0674439 0.997723 0 0 0 1)
(0.997555 -0.0698925 0 0.0698925 0.997555 0 0 0 1)
(0.99738 -0.0723407 0 0.0723407 0.99738 0 0 0 1)
(0.997199 -0.0747884 0 0.0747884 0.997199 0 0 0 1)
(0.997013 -0.0772356 0 0.0772356 0.997013 0 0 0 1)
(0.99682 -0.0796825 0 0.0796825 0.99682 0 0 0 1)
(0.996622 -0.0821288 0 0.0821288 0.996622 0 0 0 1)
(0.996417 -0.0845746 0 0.0845746 0.996417 0 0 0 1)
(0.996207 -0.0870199 0 0.0870199 0.996207 0 0 0 1)
(0.99599 -0.0894647 0 0.0894647 0.99599 0 0 0 1)
(0.995767 -0.091909 0 0.091909 0.995767 0 0 0 1)
(0.995539 -0.0943527 0 0.0943527 0.995539 0 0 0 1)
(0.995304 -0.0967958 0 0.0967958 0.995304 0 0 0 1)
(0.995064 -0.0992383 0 0.0992383 0.995064 0 0 0 1)
(0.994817 -0.10168 0 0.10168 0.994817 0 0 0 1)
(0.994565 -0.104122 0 0.104122 0.994565 0 0 0 1)
(0.994306 -0.106562 0 0.106562 0.994306 0 0 0 1)
(0.994041 -0.109003 0 0.109003 0.994041 0 0 0 1)
(0.993771 -0.111442 0 0.111442 0.993771 0 0 0 1)
(0.993494 -0.11388 0 0.11388 0.993494 0 0 0 1)
(0.993212 -0.116319 0 0.116319 0.993212 0 0 0 1)
(0.992923 -0.118756 0 0.118756 0.992923 0 0 0 1)
(0.992629 -0.121192 0 0.121192 0.992629 0 0 0 1)
(0.992329 -0.123628 0 0.123628 0.992329 0 0 0 1)
(0.992022 -0.126064 0 0.126064 0.992022 0 0 0 1)
(0.99171 -0.128498 0 0.128498 0.99171 0 0 0 1)
(0.991391 -0.130932 0 0.130932 0.991391 0 0 0 1)
(0.991067 -0.133364 0 0.133364 0.991067 0 0 0 1)
(0.990737 -0.135797 0 0.135797 0.990737 0 0 0 1)
(0.9904 -0.138228 0 0.138228 0.9904 0 0 0 1)
(0.990058 -0.140658 0 0.140658 0.990058 0 0 0 1)
(0.98971 -0.143088 0 0.143088 0.98971 0 0 0 1)
(0.989356 -0.145517 0 0.145517 0.989356 0 0 0 1)
(0.988996 -0.147944 0 0.147944 0.988996 0 0 0 1)
(0.98863 -0.150371 0 0.150371 0.98863 0 0 0 1)
(0.988258 -0.152797 0 0.152797 0.988258 0 0 0 1)
(0.98788 -0.155222 0 0.155222 0.98788 0 0 0 1)
(0.987496 -0.157647 0 0.157647 0.987496 0 0 0 1)
(0.987106 -0.160069 0 0.160069 0.987106 0 0 0 1)
(0.98671 -0.162492 0 0.162492 0.98671 0 0 0 1)
(0.986308 -0.164913 0 0.164913 0.986308 0 0 0 1)
(0.9859 -0.167333 0 0.167333 0.9859 0 0 0 1)
(0.985487 -0.169753 0 0.169753 0.985487 0 0 0 1)
(0.985067 -0.172171 0 0.172171 0.985067 0 0 0 1)
(0.984642 -0.174588 0 0.174588 0.984642 0 0 0 1)
(0.98421 -0.177004 0 0.177004 0.98421 0 0 0 1)
(0.983773 -0.179419 0 0.179419 0.983773 0 0 0 1)
(0.983329 -0.181833 0 0.181833 0.983329 0 0 0 1)
(0.98288 -0.184246 0 0.184246 0.98288 0 0 0 1)
(0.982425 -0.186658 0 0.186658 0.982425 0 0 0 1)
(0.981964 -0.189069 0 0.189069 0.981964 0 0 0 1)
(0.981497 -0.191478 0 0.191478 0.981497 0 0 0 1)
(0.981024 -0.193887 0 0.193887 0.981024 0 0 0 1)
(0.980545 -0.196294 0 0.196294 0.980545 0 0 0 1)
(0.98006 -0.1987 0 0.1987 0.98006 0 0 0 1)
(0.97957 -0.201105 0 0.201105 0.97957 0 0 0 1)
(0.979073 -0.203508 0 0.203508 0.979073 0 0 0 1)
(0.978571 -0.20591 0 0.20591 0.978571 0 0 0 1)
(0.978062 -0.208312 0 0.208312 0.978062 0 0 0 1)
(0.977548 -0.210712 0 0.210712 0.977548 0 0 0 1)
(0.977028 -0.21311 0 0.21311 0.977028 0 0 0 1)
(0.976502 -0.215508 0 0.215508 0.976502 0 0 0 1)
(0.97597 -0.217904 0 0.217904 0.97597 0 0 0 1)
(0.975432 -0.220299 0 0.220299 0.975432 0 0 0 1)
(0.974889 -0.222692 0 0.222692 0.974889 0 0 0 1)
(0.974339 -0.225084 0 0.225084 0.974339 0 0 0 1)
(0.973784 -0.227475 0 0.227475 0.973784 0 0 0 1)
(0.973223 -0.229864 0 0.229864 0.973223 0 0 0 1)
(0.972656 -0.232252 0 0.232252 0.972656 0 0 0 1)
(0.972083 -0.234638 0 0.234638 0.972083 0 0 0 1)
(0.971504 -0.237024 0 0.237024 0.971504 0 0 0 1)
(0.970919 -0.239407 0 0.239407 0.970919 0 0 0 1)
(0.970329 -0.24179 0 0.24179 0.970329 0 0 0 1)
(0.969732 -0.24417 0 0.24417 0.969732 0 0 0 1)
(0.96913 -0.24655 0 0.24655 0.96913 0 0 0 1)
(0.968522 -0.248928 0 0.248928 0.968522 0 0 0 1)
(0.967908 -0.251304 0 0.251304 0.967908 0 0 0 1)
(0.967289 -0.253679 0 0.253679 0.967289 0 0 0 1)
(0.966663 -0.256052 0 0.256052 0.966663 0 0 0 1)
(0.966032 -0.258424 0 0.258424 0.966032 0 0 0 1)
(0.965394 -0.260794 0 0.260794 0.965394 0 0 0 1)
(0.964751 -0.263163 0 0.263163 0.964751 0 0 0 1)
(0.964103 -0.26553 0 0.26553 0.964103 0 0 0 1)
(0.963448 -0.267896 0 0.267896 0.963448 0 0 0 1)
(0.962788 -0.270259 0 0.270259 0.962788 0 0 0 1)
(0.962121 -0.272621 0 0.272621 0.962121 0 0 0 1)
(0.961449 -0.274982 0 0.274982 0.961449 0 0 0 1)
(0.960772 -0.277341 0 0.277341 0.960772 0 0 0 1)
(0.960088 -0.279698 0 0.279698 0.960088 0 0 0 1)
(0.959399 -0.282054 0 0.282054 0.959399 0 0 0 1)
(0.958703 -0.284408 0 0.284408 0.958703 0 0 0 1)
(0.958002 -0.28676 0 0.28676 0.958002 0 0 0 1)
(0.957296 -0.28911 0 0.28911 0.957296 0 0 0 1)
(0.956583 -0.291459 0 0.291459 0.956583 0 0 0 1)
(0.955865 -0.293806 0 0.293806 0.955865 0 0 0 1)
(0.955141 -0.296151 0 0.296151 0.955141 0 0 0 1)
(0.954411 -0.298494 0 0.298494 0.954411 0 0 0 1)
(0.953676 -0.300836 0 0.300836 0.953676 0 0 0 1)
(0.952935 -0.303176 0 0.303176 0.952935 0 0 0 1)
(0.952188 -0.305514 0 0.305514 0.952188 0 0 0 1)
(0.951435 -0.30785 0 0.30785 0.951435 0 0 0 1)
(0.950677 -0.310184 0 0.310184 0.950677 0 0 0 1)
(0.949912 -0.312516 0 0.312516 0.949912 0 0 0 1)
(0.949143 -0.314847 0 0.314847 0.949143 0 0 0 1)
(0.948367 -0.317175 0 0.317175 0.948367 0 0 0 1)
(0.947586 -0.319502 0 0.319502 0.947586 0 0 0 1)
(0.946799 -0.321827 0 0.321827 0.946799 0 0 0 1)
(0.946006 -0.32415 0 0.32415 0.946006 0 0 0 1)
(0.945207 -0.326471 0 0.326471 0.945207 0 0 0 1)
(0.944403 -0.32879 0 0.32879 0.944403 0 0 0 1)
(0.943593 -0.331107 0 0.331107 0.943593 0 0 0 1)
(0.942778 -0.333421 0 0.333421 0.942778 0 0 0 1)
(0.941957 -0.335734 0 0.335734 0.941957 0 0 0 1)
(0.94113 -0.338045 0 0.338045 0.94113 0 0 0 1)
(0.940297 -0.340354 0 0.340354 0.940297 0 0 0 1)
(0.939459 -0.342661 0 0.342661 0.939459 0 0 0 1)
(0.938615 -0.344966 0 0.344966 0.938615 0 0 0 1)
(0.937766 -0.347268 0 0.347268 0.937766 0 0 0 1)
(0.936911 -0.349569 0 0.349569 0.936911 0 0 0 1)
(0.93605 -0.351867 0 0.351867 0.93605 0 0 0 1)
(0.935183 -0.354164 0 0.354164 0.935183 0 0 0 1)
(0.934311 -0.356458 0 0.356458 0.934311 0 0 0 1)
(0.933434 -0.35875 0 0.35875 0.933434 0 0 0 1)
(0.93255 -0.36104 0 0.36104 0.93255 0 0 0 1)
(0.931661 -0.363328 0 0.363328 0.931661 0 0 0 1)
(0.930767 -0.365613 0 0.365613 0.930767 0 0 0 1)
(0.929867 -0.367896 0 0.367896 0.929867 0 0 0 1)
(0.928961 -0.370177 0 0.370177 0.928961 0 0 0 1)
(0.92805 -0.372457 0 0.372457 0.92805 0 0 0 1)
(0.927133 -0.374733 0 0.374733 0.927133 0 0 0 1)
(0.92621 -0.377007 0 0.377007 0.92621 0 0 0 1)
(0.925282 -0.37928 0 0.37928 0.925282 0 0 0 1)
(0.924348 -0.38155 0 0.38155 0.924348 0 0 0 1)
(0.923409 -0.383817 0 0.383817 0.923409 0 0 0 1)
(0.922464 -0.386082 0 0.386082 0.922464 0 0 0 1)
(0.921514 -0.388345 0 0.388345 0.921514 0 0 0 1)
(0.920558 -0.390606 0 0.390606 0.920558 0 0 0 1)
(0.919597 -0.392864 0 0.392864 0.919597 0 0 0 1)
(0.91863 -0.39512 0 0.39512 0.91863 0 0 0 1)
(0.917657 -0.397373 0 0.397373 0.917657 0 0 0 1)
(0.916679 -0.399624 0 0.399624 0.916679 0 0 0 1)
(0.915696 -0.401873 0 0.401873 0.915696 0 0 0 1)
(0.914706 -0.404119 0 0.404119 0.914706 0 0 0 1)
(0.913712 -0.406363 0 0.406363 0.913712 0 0 0 1)
(0.912712 -0.408605 0 0.408605 0.912712 0 0 0 1)
(0.911706 -0.410844 0 0.410844 0.911706 0 0 0 1)
(0.910695 -0.41308 0 0.41308 0.910695 0 0 0 1)
(0.909678 -0.415314 0 0.415314 0.909678 0 0 0 1)
(0.908656 -0.417545 0 0.417545 0.908656 0 0 0 1)
(0.907629 -0.419774 0 0.419774 0.907629 0 0 0 1)
(0.906596 -0.422 0 0.422 0.906596 0 0 0 1)
(0.905557 -0.424224 0 0.424224 0.905557 0 0 0 1)
(0.904513 -0.426445 0 0.426445 0.904513 0 0 0 1)
(0.903464 -0.428664 0 0.428664 0.903464 0 0 0 1)
(0.902409 -0.43088 0 0.43088 0.902409 0 0 0 1)
(0.901349 -0.433094 0 0.433094 0.901349 0 0 0 1)
(0.900283 -0.435305 0 0.435305 0.900283 0 0 0 1)
(0.899212 -0.437513 0 0.437513 0.899212 0 0 0 1)
(0.898135 -0.439719 0 0.439719 0.898135 0 0 0 1)
(0.897053 -0.441922 0 0.441922 0.897053 0 0 0 1)
(0.895966 -0.444122 0 0.444122 0.895966 0 0 0 1)
(0.894874 -0.44632 0 0.44632 0.894874 0 0 0 1)
(0.893775 -0.448515 0 0.448515 0.893775 0 0 0 1)
(0.892672 -0.450707 0 0.450707 0.892672 0 0 0 1)
(0.891563 -0.452897 0 0.452897 0.891563 0 0 0 1)
(0.890449 -0.455084 0 0.455084 0.890449 0 0 0 1)
(0.889329 -0.457268 0 0.457268 0.889329 0 0 0 1)
(0.888204 -0.459449 0 0.459449 0.888204 0 0 0 1)
(0.887074 -0.461628 0 0.461628 0.887074 0 0 0 1)
(0.885938 -0.463804 0 0.463804 0.885938 0 0 0 1)
(0.884797 -0.465977 0 0.465977 0.884797 0 0 0 1)
(0.883651 -0.468147 0 0.468147 0.883651 0 0 0 1)
(0.882499 -0.470314 0 0.470314 0.882499 0 0 0 1)
(0.881342 -0.472479 0 0.472479 0.881342 0 0 0 1)
(0.88018 -0.474641 0 0.474641 0.88018 0 0 0 1)
(0.879012 -0.4768 0 0.4768 0.879012 0 0 0 1)
(0.877839 -0.478955 0 0.478955 0.877839 0 0 0 1)
(0.876661 -0.481108 0 0.481108 0.876661 0 0 0 1)
(0.875478 -0.483259 0 0.483259 0.875478 0 0 0 1)
(0.874289 -0.485406 0 0.485406 0.874289 0 0 0 1)
(0.873095 -0.48755 0 0.48755 0.873095 0 0 0 1)
(0.871896 -0.489692 0 0.489692 0.871896 0 0 0 1)
(0.870691 -0.49183 0 0.49183 0.870691 0 0 0 1)
(0.869481 -0.493966 0 0.493966 0.869481 0 0 0 1)
(0.868266 -0.496098 0 0.496098 0.868266 0 0 0 1)
(0.867046 -0.498228 0 0.498228 0.867046 0 0 0 1)
(0.865821 -0.500354 0 0.500354 0.865821 0 0 0 1)
(0.86459 -0.502478 0 0.502478 0.86459 0 0 0 1)
(0.863354 -0.504598 0 0.504598 0.863354 0 0 0 1)
(0.862113 -0.506716 0 0.506716 0.862113 0 0 0 1)
(0.860867 -0.50883 0 0.50883 0.860867 0 0 0 1)
(0.859616 -0.510941 0 0.510941 0.859616 0 0 0 1)
(0.858359 -0.51305 0 0.51305 0.858359 0 0 0 1)
(0.857097 -0.515155 0 0.515155 0.857097 0 0 0 1)
(0.85583 -0.517257 0 0.517257 0.85583 0 0 0 1)
(0.854558 -0.519356 0 0.519356 0.854558 0 0 0 1)
(0.853281 -0.521452 0 0.521452 0.853281 0 0 0 1)
(0.851998 -0.523545 0 0.523545 0.851998 0 0 0 1)
(0.850711 -0.525634 0 0.525634 0.850711 0 0 0 1)
(0.849418 -0.52772 0 0.52772 0.849418 0 0 0 1)
(0.84812 -0.529804 0 0.529804 0.84812 0 0 0 1)
(0.846817 -0.531884 0 0.531884 0.846817 0 0 0 1)
(0.845509 -0.533961 0 0.533961 0.845509 0 0 0 1)
(0.844196 -0.536034 0 0.536034 0.844196 0 0 0 1)
(0.842878 -0.538104 0 0.538104 0.842878 0 0 0 1)
(0.841555 -0.540172 0 0.540172 0.841555 0 0 0 1)
(0.840227 -0.542235 0 0.542235 0.840227 0 0 0 1)
(0.838893 -0.544296 0 0.544296 0.838893 0 0 0 1)
(0.837555 -0.546353 0 0.546353 0.837555 0 0 0 1)
(0.836211 -0.548407 0 0.548407 0.836211 0 0 0 1)
(0.834863 -0.550458 0 0.550458 0.834863 0 0 0 1)
(0.833509 -0.552505 0 0.552505 0.833509 0 0 0 1)
(0.832151 -0.55455 0 0.55455 0.832151 0 0 0 1)
(0.830787 -0.55659 0 0.55659 0.830787 0 0 0 1)
(0.829419 -0.558628 0 0.558628 0.829419 0 0 0 1)
(0.828045 -0.560662 0 0.560662 0.828045 0 0 0 1)
(0.826666 -0.562692 0 0.562692 0.826666 0 0 0 1)
(0.825283 -0.564719 0 0.564719 0.825283 0 0 0 1)
(0.823894 -0.566743 0 0.566743 0.823894 0 0 0 1)
(0.822501 -0.568764 0 0.568764 0.822501 0 0 0 1)
(0.821102 -0.570781 0 0.570781 0.821102 0 0 0 1)
(0.819699 -0.572795 0 0.572795 0.819699 0 0 0 1)
(0.818291 -0.574804 0 0.574804 0.818291 0 0 0 1)
(0.816878 -0.576811 0 0.576811 0.816878 0 0 0 1)
(0.815459 -0.578814 0 0.578814 0.815459 0 0 0 1)
(0.814036 -0.580814 0 0.580814 0.814036 0 0 0 1)
(0.812608 -0.58281 0 0.58281 0.812608 0 0 0 1)
(0.811175 -0.584803 0 0.584803 0.811175 0 0 0 1)
(0.809738 -0.586792 0 0.586792 0.809738 0 0 0 1)
(0.808295 -0.588778 0 0.588778 0.808295 0 0 0 1)
(0.806848 -0.59076 0 0.59076 0.806848 0 0 0 1)
(0.805395 -0.592738 0 0.592738 0.805395 0 0 0 1)
(0.803938 -0.594713 0 0.594713 0.803938 0 0 0 1)
(0.802476 -0.596684 0 0.596684 0.802476 0 0 0 1)
(0.801009 -0.598652 0 0.598652 0.801009 0 0 0 1)
(0.799537 -0.600617 0 0.600617 0.799537 0 0 0 1)
(0.798061 -0.602577 0 0.602577 0.798061 0 0 0 1)
(0.796579 -0.604534 0 0.604534 0.796579 0 0 0 1)
(0.795093 -0.606487 0 0.606487 0.795093 0 0 0 1)
(0.793602 -0.608437 0 0.608437 0.793602 0 0 0 1)
(0.792106 -0.610383 0 0.610383 0.792106 0 0 0 1)
(0.790606 -0.612325 0 0.612325 0.790606 0 0 0 1)
(0.789101 -0.614264 0 0.614264 0.789101 0 0 0 1)
(0.787591 -0.616199 0 0.616199 0.787591 0 0 0 1)
(0.786076 -0.61813 0 0.61813 0.786076 0 0 0 1)
(0.784557 -0.620057 0 0.620057 0.784557 0 0 0 1)
(0.783032 -0.621981 0 0.621981 0.783032 0 0 0 1)
(0.781503 -0.623901 0 0.623901 0.781503 0 0 0 1)
(0.77997 -0.625817 0 0.625817 0.77997 0 0 0 1)
(0.778431 -0.62773 0 0.62773 0.778431 0 0 0 1)
(0.776888 -0.629638 0 0.629638 0.776888 0 0 0 1)
(0.775341 -0.631543 0 0.631543 0.775341 0 0 0 1)
(0.773788 -0.633444 0 0.633444 0.773788 0 0 0 1)
(0.772231 -0.635341 0 0.635341 0.772231 0 0 0 1)
(0.77067 -0.637235 0 0.637235 0.77067 0 0 0 1)
(0.769103 -0.639125 0 0.639125 0.769103 0 0 0 1)
(0.767532 -0.641011 0 0.641011 0.767532 0 0 0 1)
(0.765957 -0.642892 0 0.642892 0.765957 0 0 0 1)
(0.764376 -0.64477 0 0.64477 0.764376 0 0 0 1)
(0.762792 -0.646644 0 0.646644 0.762792 0 0 0 1)
(0.761202 -0.648514 0 0.648514 0.761202 0 0 0 1)
(0.759608 -0.650381 0 0.650381 0.759608 0 0 0 1)
(0.75801 -0.652243 0 0.652243 0.75801 0 0 0 1)
(0.756407 -0.654101 0 0.654101 0.756407 0 0 0 1)
(0.754799 -0.655956 0 0.655956 0.754799 0 0 0 1)
(0.753187 -0.657807 0 0.657807 0.753187 0 0 0 1)
(0.75157 -0.659654 0 0.659654 0.75157 0 0 0 1)
(0.749948 -0.661496 0 0.661496 0.749948 0 0 0 1)
(0.748323 -0.663335 0 0.663335 0.748323 0 0 0 1)
(0.746692 -0.665169 0 0.665169 0.746692 0 0 0 1)
(0.745058 -0.667 0 0.667 0.745058 0 0 0 1)
(0.743419 -0.668827 0 0.668827 0.743419 0 0 0 1)
(0.741775 -0.670649 0 0.670649 0.741775 0 0 0 1)
(0.740126 -0.672468 0 0.672468 0.740126 0 0 0 1)
(0.738474 -0.674282 0 0.674282 0.738474 0 0 0 1)
(0.736816 -0.676093 0 0.676093 0.736816 0 0 0 1)
(0.735155 -0.677899 0 0.677899 0.735155 0 0 0 1)
(0.733489 -0.679702 0 0.679702 0.733489 0 0 0 1)
(0.731818 -0.6815 0 0.6815 0.731818 0 0 0 1)
(0.730144 -0.683294 0 0.683294 0.730144 0 0 0 1)
(0.728464 -0.685084 0 0.685084 0.728464 0 0 0 1)
(0.726781 -0.68687 0 0.68687 0.726781 0 0 0 1)
(0.725093 -0.688651 0 0.688651 0.725093 0 0 0 1)
(0.7234 -0.690429 0 0.690429 0.7234 0 0 0 1)
(0.721704 -0.692202 0 0.692202 0.721704 0 0 0 1)
(0.720002 -0.693972 0 0.693972 0.720002 0 0 0 1)
(0.718297 -0.695737 0 0.695737 0.718297 0 0 0 1)
(0.716587 -0.697497 0 0.697497 0.716587 0 0 0 1)
(0.714873 -0.699254 0 0.699254 0.714873 0 0 0 1)
(0.713155 -0.701007 0 0.701007 0.713155 0 0 0 1)
(0.711432 -0.702755 0 0.702755 0.711432 0 0 0 1)
(0.709705 -0.704499 0 0.704499 0.709705 0 0 0 1)
(0.707974 -0.706239 0 0.706239 0.707974 0 0 0 1)
)
;

boundaryField
{
    left
    {
        type            calculated;
        value           uniform (1 -0 0 0 1 0 0 0 1);
    }
    right
    {
        type            calculated;
        value           uniform (0.707107 -0.707107 0 0.707107 0.707107 0 0 0 1);
    }
    beam
    {
        type            empty;
    }
}


// ************************************************************************* //
