/*--------------------------------*- C++ -*----------------------------------*\
| =========                 |                                                 |
| \\      /  F ield         | foam-extend: Open Source CFD                    |
|  \\    /   O peration     | Version:     4.1                                |
|   \\  /    A nd           | Web:         http://www.foam-extend.org         |
|    \\/     M anipulation  |                                                 |
\*---------------------------------------------------------------------------*/
FoamFile
{
    version     2.0;
    format      ascii;
    class       surfaceVectorField;
    location    "0";
    object      refWf;
}
// * * * * * * * * * * * * * * * * * * * * * * * * * * * * * * * * * * * * * //

dimensions      [0 1 0 0 0 0 0];

internalField   nonuniform List<vector> 
319
(
(-2.46416e-07 0.000301197 0)
(-1.97133e-06 0.00120478 0)
(-6.65322e-06 0.00271076 0)
(-1.57706e-05 0.00481911 0)
(-3.08014e-05 0.00752976 0)
(-5.32251e-05 0.0108429 0)
(-8.45196e-05 0.0147583 0)
(-0.000126163 0.019276 0)
(-0.000179632 0.0243959 0)
(-0.000246409 0.0301182 0)
(-0.000327969 0.0364427 0)
(-0.000425787 0.0433691 0)
(-0.000541348 0.0508979 0)
(-0.000676127 0.0590288 0)
(-0.000831594 0.0677614 0)
(-0.00100924 0.0770964 0)
(-0.00121054 0.0870333 0)
(-0.00143695 0.0975716 0)
(-0.00168998 0.108712 0)
(-0.00197109 0.120454 0)
(-0.00228176 0.132798 0)
(-0.00262345 0.145744 0)
(-0.00299767 0.159291 0)
(-0.00340587 0.173439 0)
(-0.00384952 0.188189 0)
(-0.00433012 0.20354 0)
(-0.00484914 0.219492 0)
(-0.00540803 0.236045 0)
(-0.00600831 0.253199 0)
(-0.00665143 0.270955 0)
(-0.00733884 0.28931 0)
(-0.00807206 0.308267 0)
(-0.00885255 0.327824 0)
(-0.00968177 0.347982 0)
(-0.0105612 0.368739 0)
(-0.0114923 0.390097 0)
(-0.0124766 0.412055 0)
(-0.0135154 0.434612 0)
(-0.0146104 0.45777 0)
(-0.015763 0.481528 0)
(-0.0169746 0.505883 0)
(-0.018247 0.530845 0)
(-0.0195809 0.556397 0)
(-0.0209783 0.582547 0)
(-0.0224412 0.609307 0)
(-0.0239699 0.636655 0)
(-0.0255664 0.664601 0)
(-0.0272329 0.693158 0)
(-0.0289696 0.7223 0)
(-0.0307784 0.752041 0)
(-0.0326618 0.782392 0)
(-0.0346197 0.813328 0)
(-0.036655 0.844874 0)
(-0.0387676 0.877005 0)
(-0.0409598 0.909732 0)
(-0.043234 0.943071 0)
(-0.0455898 0.976992 0)
(-0.0480296 1.01151 0)
(-0.0505558 1.04664 0)
(-0.053168 1.08235 0)
(-0.0558696 1.11867 0)
(-0.05866 1.15557 0)
(-0.0615416 1.19306 0)
(-0.0645172 1.23117 0)
(-0.0675859 1.26986 0)
(-0.0707502 1.30914 0)
(-0.074013 1.34903 0)
(-0.077373 1.3895 0)
(-0.0808331 1.43056 0)
(-0.0843962 1.47224 0)
(-0.0880608 1.51449 0)
(-0.0918314 1.55735 0)
(-0.0957063 1.60079 0)
(-0.0996885 1.64482 0)
(-0.103781 1.68946 0)
(-0.107983 1.73467 0)
(-0.112295 1.78048 0)
(-0.116723 1.82689 0)
(-0.121264 1.87388 0)
(-0.125923 1.92148 0)
(-0.130697 1.96965 0)
(-0.13559 2.01841 0)
(-0.140606 2.06778 0)
(-0.145742 2.11772 0)
(-0.151 2.16826 0)
(-0.156386 2.2194 0)
(-0.161896 2.2711 0)
(-0.167533 2.3234 0)
(-0.173302 2.37631 0)
(-0.179199 2.42978 0)
(-0.18523 2.48387 0)
(-0.191393 2.53851 0)
(-0.19769 2.59375 0)
(-0.204126 2.64959 0)
(-0.210697 2.706 0)
(-0.217407 2.763 0)
(-0.224261 2.8206 0)
(-0.231254 2.87877 0)
(-0.238394 2.93754 0)
(-0.245675 2.99688 0)
(-0.253103 3.0568 0)
(-0.260681 3.11732 0)
(-0.268406 3.17841 0)
(-0.276281 3.24008 0)
(-0.284312 3.30236 0)
(-0.292493 3.36519 0)
(-0.300832 3.42864 0)
(-0.309325 3.49264 0)
(-0.317975 3.55722 0)
(-0.326788 3.6224 0)
(-0.335758 3.68815 0)
(-0.34489 3.75447 0)
(-0.354189 3.8214 0)
(-0.363649 3.88888 0)
(-0.373276 3.95694 0)
(-0.383074 4.0256 0)
(-0.393038 4.09482 0)
(-0.403176 4.16464 0)
(-0.413483 4.23501 0)
(-0.423962 4.30596 0)
(-0.434621 4.37751 0)
(-0.445452 4.44961 0)
(-0.45646 4.52229 0)
(-0.467652 4.59557 0)
(-0.47902 4.66939 0)
(-0.490575 4.74382 0)
(-0.502308 4.81879 0)
(-0.514226 4.89434 0)
(-0.526335 4.97049 0)
(-0.538627 5.04718 0)
(-0.551107 5.12445 0)
(-0.563783 5.20231 0)
(-0.576646 5.28072 0)
(-0.589701 5.35969 0)
(-0.602957 5.43927 0)
(-0.616403 5.51939 0)
(-0.630052 5.60011 0)
(-0.643894 5.68136 0)
(-0.657937 5.76318 0)
(-0.672186 5.8456 0)
(-0.686633 5.92856 0)
(-0.701284 6.01208 0)
(-0.716147 6.09621 0)
(-0.731211 6.18086 0)
(-0.746489 6.26612 0)
(-0.761972 6.3519 0)
(-0.777665 6.43825 0)
(-0.793578 6.5252 0)
(-0.809698 6.61267 0)
(-0.826033 6.70071 0)
(-0.842592 6.78934 0)
(-0.859362 6.8785 0)
(-0.876352 6.96822 0)
(-0.89357 7.05854 0)
(-0.911003 7.14938 0)
(-0.928667 7.24082 0)
(-0.946548 7.33278 0)
(-0.964656 7.4253 0)
(-0.983 7.51841 0)
(-1.00156 7.61205 0)
(-1.02036 7.70623 0)
(-1.0394 7.80102 0)
(-1.05866 7.89632 0)
(-1.07816 7.99221 0)
(-1.09789 8.08862 0)
(-1.11786 8.18558 0)
(-1.13807 8.28314 0)
(-1.15852 8.3812 0)
(-1.17921 8.47982 0)
(-1.20015 8.57904 0)
(-1.22132 8.67876 0)
(-1.24275 8.77907 0)
(-1.26442 8.87989 0)
(-1.28634 8.98126 0)
(-1.30851 9.08322 0)
(-1.33093 9.18568 0)
(-1.35359 9.2887 0)
(-1.37652 9.3923 0)
(-1.3997 9.4964 0)
(-1.42313 9.60105 0)
(-1.44683 9.70629 0)
(-1.47078 9.81203 0)
(-1.495 9.91835 0)
(-1.51947 10.0252 0)
(-1.5442 10.1325 0)
(-1.56921 10.2405 0)
(-1.59448 10.3489 0)
(-1.62001 10.4579 0)
(-1.64581 10.5675 0)
(-1.67188 10.6776 0)
(-1.69823 10.7882 0)
(-1.72484 10.8994 0)
(-1.75173 11.011 0)
(-1.7789 11.1233 0)
(-1.80633 11.236 0)
(-1.83404 11.3493 0)
(-1.86204 11.4632 0)
(-1.89032 11.5775 0)
(-1.91887 11.6924 0)
(-1.94771 11.8079 0)
(-1.97683 11.9238 0)
(-2.00625 12.0404 0)
(-2.03594 12.1574 0)
(-2.06592 12.2749 0)
(-2.0962 12.393 0)
(-2.12676 12.5116 0)
(-2.1576 12.6307 0)
(-2.18876 12.7504 0)
(-2.2202 12.8706 0)
(-2.25194 12.9913 0)
(-2.28397 13.1125 0)
(-2.3163 13.2343 0)
(-2.34894 13.3566 0)
(-2.38187 13.4794 0)
(-2.4151 13.6027 0)
(-2.44864 13.7266 0)
(-2.48248 13.8509 0)
(-2.51662 13.9758 0)
(-2.55109 14.1012 0)
(-2.58585 14.2271 0)
(-2.62093 14.3536 0)
(-2.65631 14.4805 0)
(-2.692 14.608 0)
(-2.72802 14.736 0)
(-2.76434 14.8645 0)
(-2.80098 14.9935 0)
(-2.83794 15.123 0)
(-2.87521 15.253 0)
(-2.91282 15.3836 0)
(-2.95073 15.5147 0)
(-2.98897 15.6462 0)
(-3.02754 15.7783 0)
(-3.06642 15.9109 0)
(-3.10563 16.0439 0)
(-3.14518 16.1775 0)
(-3.18505 16.3116 0)
(-3.22526 16.4463 0)
(-3.26578 16.5813 0)
(-3.30664 16.7169 0)
(-3.34785 16.8531 0)
(-3.38937 16.9897 0)
(-3.43123 17.1267 0)
(-3.47345 17.2644 0)
(-3.51598 17.4025 0)
(-3.55886 17.541 0)
(-3.60209 17.6802 0)
(-3.64565 17.8198 0)
(-3.68957 17.9599 0)
(-3.73382 18.1004 0)
(-3.77841 18.2415 0)
(-3.82336 18.3831 0)
(-3.86865 18.5252 0)
(-3.91429 18.6677 0)
(-3.96029 18.8108 0)
(-4.00663 18.9543 0)
(-4.05334 19.0983 0)
(-4.10038 19.2428 0)
(-4.14778 19.3878 0)
(-4.19556 19.5333 0)
(-4.24367 19.6793 0)
(-4.29214 19.8257 0)
(-4.341 19.9726 0)
(-4.39019 20.12 0)
(-4.43975 20.2679 0)
(-4.48969 20.4163 0)
(-4.53997 20.5652 0)
(-4.59064 20.7145 0)
(-4.64166 20.8643 0)
(-4.69304 21.0146 0)
(-4.74482 21.1654 0)
(-4.79694 21.3166 0)
(-4.84944 21.4683 0)
(-4.90233 21.6205 0)
(-4.95558 21.7731 0)
(-5.00922 21.9263 0)
(-5.06321 22.0799 0)
(-5.11759 22.2339 0)
(-5.17236 22.3885 0)
(-5.22749 22.5435 0)
(-5.283 22.6989 0)
(-5.33892 22.8549 0)
(-5.3952 23.0113 0)
(-5.45188 23.1682 0)
(-5.50893 23.3255 0)
(-5.56637 23.4833 0)
(-5.62421 23.6416 0)
(-5.68242 23.8002 0)
(-5.74102 23.9594 0)
(-5.80004 24.1191 0)
(-5.85942 24.2791 0)
(-5.9192 24.4396 0)
(-5.9794 24.6007 0)
(-6.03997 24.7621 0)
(-6.10096 24.924 0)
(-6.16232 25.0864 0)
(-6.22408 25.2492 0)
(-6.28627 25.4125 0)
(-6.34883 25.5761 0)
(-6.4118 25.7403 0)
(-6.47519 25.9049 0)
(-6.53896 26.0699 0)
(-6.60317 26.2355 0)
(-6.66775 26.4014 0)
(-6.73275 26.5677 0)
(-6.79818 26.7346 0)
(-6.86399 26.9018 0)
(-6.93021 27.0695 0)
(-6.99687 27.2377 0)
(-7.06392 27.4063 0)
(-7.13138 27.5753 0)
(-7.19929 27.7448 0)
(-7.26758 27.9146 0)
(-7.33632 28.085 0)
(-7.40545 28.2557 0)
(-7.475 28.4269 0)
(-7.545 28.5986 0)
(-7.61539 28.7706 0)
(-7.68621 28.9431 0)
(-7.75747 29.116 0)
)
;

boundaryField
{
    left
    {
        type            calculated;
        value           uniform (0 0 0);
    }
    right
    {
        type            calculated;
        value           uniform (-7.82914 29.2893 0);
    }
    beam
    {
        type            empty;
    }
}


// ************************************************************************* //
