/*--------------------------------*- C++ -*----------------------------------*\
| =========                 |                                                 |
| \\      /  F ield         | foam-extend: Open Source CFD                    |
|  \\    /   O peration     | Version:     4.1                                |
|   \\  /    A nd           | Web:         http://www.foam-extend.org         |
|    \\/     M anipulation  |                                                 |
\*---------------------------------------------------------------------------*/
FoamFile
{
    version     2.0;
    format      ascii;
    class       surfaceTensorField;
    location    "0";
    object      refLambda;
}
// * * * * * * * * * * * * * * * * * * * * * * * * * * * * * * * * * * * * * //

dimensions      [0 0 0 0 0 0 0];

internalField   nonuniform List<tensor> 7((0.995185 -0.0980172 0 0.0980172 0.995185 0 0 0 1) (0.980785 -0.195091 0 0.195091 0.980785 0 0 0 1) (0.95694 -0.290284 0 0.290284 0.95694 0 0 0 1) (0.92388 -0.382683 0 0.382683 0.92388 0 0 0 1) (0.881921 -0.471397 0 0.471397 0.881921 0 0 0 1) (0.831469 -0.555571 0 0.555571 0.831469 0 0 0 1) (0.773011 -0.634393 0 0.634393 0.773011 0 0 0 1));

boundaryField
{
    left
    {
        type            calculated;
        value           uniform (1 -0 0 0 1 0 0 0 1);
    }
    right
    {
        type            calculated;
        value           uniform (0.707107 -0.707107 0 0.707107 0.707107 0 0 0 1);
    }
    beam
    {
        type            empty;
    }
}


// ************************************************************************* //
