/*--------------------------------*- C++ -*----------------------------------*\
| =========                 |                                                 |
| \\      /  F ield         | foam-extend: Open Source CFD                    |
|  \\    /   O peration     | Version:     4.1                                |
|   \\  /    A nd           | Web:         http://www.foam-extend.org         |
|    \\/     M anipulation  |                                                 |
\*---------------------------------------------------------------------------*/
FoamFile
{
    version     2.0;
    format      ascii;
    class       volTensorField;
    location    "0";
    object      refRM;
}
// * * * * * * * * * * * * * * * * * * * * * * * * * * * * * * * * * * * * * //

dimensions      [0 0 0 0 0 0 0];

internalField   nonuniform List<tensor> 8((0.998795 -0.0490677 0 0.0490677 0.998795 0 0 0 1) (0.989176 -0.146731 0 0.146731 0.989176 0 0 0 1) (0.970031 -0.24298 0 0.24298 0.970031 0 0 0 1) (0.941544 -0.33689 0 0.33689 0.941544 0 0 0 1) (0.903989 -0.427555 0 0.427555 0.903989 0 0 0 1) (0.857728 -0.514103 0 0.514103 0.857728 0 0 0 1) (0.803207 -0.595699 0 0.595699 0.803207 0 0 0 1) (0.740951 -0.671559 0 0.671559 0.740951 0 0 0 1));

boundaryField
{
    left
    {
        type            calculated;
        value           uniform (1 -0 0 0 1 0 0 0 1);
    }
    right
    {
        type            calculated;
        value           uniform (0.707107 -0.707107 0 0.707107 0.707107 0 0 0 1);
    }
    beam
    {
        type            empty;
    }
}


// ************************************************************************* //
