/*--------------------------------*- C++ -*----------------------------------*\
| =========                 |                                                 |
| \\      /  F ield         | foam-extend: Open Source CFD                    |
|  \\    /   O peration     | Version:     4.1                                |
|   \\  /    A nd           | Web:         http://www.foam-extend.org         |
|    \\/     M anipulation  |                                                 |
\*---------------------------------------------------------------------------*/
FoamFile
{
    version     2.0;
    format      ascii;
    class       surfaceVectorField;
    location    "0";
    object      refWf;
}
// * * * * * * * * * * * * * * * * * * * * * * * * * * * * * * * * * * * * * //

dimensions      [0 1 0 0 0 0 0];

internalField   nonuniform List<vector> 7((-0.015763 0.481528 0) (-0.125923 1.92148 0) (-0.423962 4.30596 0) (-1.00156 7.61205 0) (-1.94771 11.8079 0) (-3.34785 16.8531 0) (-5.283 22.6989 0));

boundaryField
{
    left
    {
        type            calculated;
        value           uniform (0 0 0);
    }
    right
    {
        type            calculated;
        value           uniform (-7.82914 29.2893 0);
    }
    beam
    {
        type            empty;
    }
}


// ************************************************************************* //
