/*--------------------------------*- C++ -*----------------------------------*\
| =========                 |                                                 |
| \\      /  F ield         | OpenFOAM: The Open Source CFD Toolbox           |
|  \\    /   O peration     | Version:  2312                                  |
|   \\  /    A nd           | Website:  www.openfoam.com                      |
|    \\/     M anipulation  |                                                 |
\*---------------------------------------------------------------------------*/
FoamFile
{
    version     2.0;
    format      ascii;
    arch        "LSB;label=32;scalar=64";
    class       volScalarField;
    location    "0.17";
    object      p;
}
// * * * * * * * * * * * * * * * * * * * * * * * * * * * * * * * * * * * * * //

dimensions      [1 -1 -2 0 0 0 0];

internalField   nonuniform List<scalar> 
299556
(
19.37475422
19.37476271
19.37477125
19.3747799
19.37478868
19.37479765
19.37480685
19.37481631
19.37482608
19.37483619
19.37484671
19.37485765
19.37486908
19.37488102
19.37489353
19.37490665
19.37492043
19.37493489
19.37495009
19.37496607
19.37498286
19.37500051
19.37501904
19.3750385
19.3750589
19.37508027
19.37510264
19.37512601
19.37515039
19.37517578
19.37520217
19.37522955
19.37525788
19.37528711
19.3753172
19.37534809
19.37537967
19.37541187
19.37544457
19.37547763
19.37551092
19.37554428
19.37557752
19.37561046
19.37564289
19.3756746
19.37570536
19.37573494
19.3757631
19.37578959
19.37581419
19.37583664
19.37585674
19.37587425
19.37588899
19.37590078
19.37590946
19.37591489
19.37591699
19.37591565
19.37591086
19.37590259
19.37589086
19.37587572
19.37585725
19.37583555
19.37581074
19.37578298
19.37575244
19.37571928
19.3756837
19.3756459
19.37560607
19.37556441
19.37552112
19.37547638
19.37543037
19.37538326
19.37533522
19.37528637
19.37523686
19.3751868
19.37513628
19.3750854
19.37503424
19.37498285
19.37493128
19.37487959
19.37482781
19.37477595
19.37476262
19.37478797
19.3748135
19.37483933
19.37486559
19.37489239
19.37491986
19.37494813
19.37497731
19.37500755
19.37503895
19.37507166
19.3751058
19.37514149
19.37517888
19.37521808
19.37525924
19.37530246
19.37534788
19.37539563
19.37544581
19.37549854
19.37555393
19.37561207
19.37567304
19.37573692
19.37580376
19.3758736
19.37594648
19.37602237
19.37610126
19.37618308
19.37626775
19.37635514
19.3764451
19.37653742
19.37663185
19.37672811
19.37682587
19.37692473
19.37702426
19.377124
19.3772234
19.3773219
19.3774189
19.37751373
19.37760574
19.37769421
19.37777843
19.37785769
19.37793126
19.37799844
19.37805856
19.37811097
19.37815508
19.37819035
19.37821632
19.3782326
19.37823887
19.3782349
19.37822056
19.37819583
19.37816075
19.37811548
19.37806023
19.37799533
19.37792115
19.37783814
19.37774678
19.37764762
19.37754122
19.37742817
19.37730906
19.37718449
19.37705503
19.37692126
19.3767837
19.37664287
19.37649923
19.3763532
19.37620519
19.37605553
19.37590452
19.37575244
19.37559949
19.37544588
19.37529176
19.37513727
19.3749825
19.37482755
19.37477093
19.374813
19.37485535
19.37489821
19.37494178
19.37498625
19.37503183
19.37507874
19.37512716
19.37517733
19.37522944
19.37528371
19.37534035
19.37539958
19.37546162
19.37552667
19.37559495
19.37566668
19.37574206
19.37582128
19.37590456
19.37599206
19.37608398
19.37618045
19.37628163
19.37638764
19.37649858
19.3766145
19.37673544
19.3768614
19.37699234
19.37712815
19.37726869
19.37741376
19.37756309
19.37771634
19.37787311
19.37803293
19.37819523
19.37835937
19.37852465
19.37869025
19.37885532
19.37901891
19.37917999
19.3793375
19.37949032
19.37963727
19.37977718
19.37990884
19.38003107
19.38014268
19.38024257
19.38032965
19.38040295
19.38046158
19.38050475
19.3805318
19.38054225
19.38053567
19.38051188
19.38047082
19.38041257
19.38033738
19.38024562
19.38013783
19.38001463
19.37987675
19.37972502
19.37956034
19.37938364
19.3791959
19.3789981
19.37879124
19.37857628
19.37835416
19.37812576
19.37789194
19.37765346
19.37741103
19.37716532
19.37691687
19.3766662
19.37641375
19.37615988
19.37590491
19.37564911
19.37539268
19.37513582
19.37487868
19.37477912
19.37483763
19.37489656
19.37495619
19.37501679
19.37507866
19.37514207
19.37520732
19.3752747
19.37534449
19.37541698
19.37549248
19.37557129
19.37565369
19.37574
19.37583051
19.37592551
19.3760253
19.37613018
19.37624041
19.37635628
19.37647803
19.37660592
19.37674017
19.37688097
19.37702849
19.37718286
19.37734418
19.3775125
19.3776878
19.37787004
19.37805907
19.3782547
19.37845663
19.37866451
19.37887786
19.37909612
19.37931863
19.37954462
19.37977318
19.38000334
19.38023398
19.38046388
19.38069173
19.38091611
19.38113554
19.38134843
19.38155318
19.38174812
19.38193159
19.38210192
19.38225748
19.3823967
19.38251809
19.38262028
19.38270201
19.38276222
19.38279997
19.38281457
19.38280546
19.38277235
19.38271517
19.38263404
19.3825293
19.38240149
19.38225133
19.3820797
19.38188763
19.38167628
19.38144688
19.38120075
19.38093926
19.38066378
19.38037568
19.38007632
19.379767
19.37944897
19.37912339
19.37879135
19.37845385
19.37811176
19.3777659
19.37741696
19.37706555
19.37671219
19.3763573
19.37600127
19.37564438
19.37528691
19.37492906
19.37478713
19.37486173
19.37493687
19.37501289
19.37509017
19.37516905
19.37524991
19.3753331
19.37541901
19.37550799
19.37560043
19.37569671
19.37579719
19.37590227
19.37601232
19.37612773
19.37624888
19.37637614
19.37650988
19.37665046
19.37679822
19.3769535
19.37711661
19.37728783
19.37746741
19.37765557
19.37785248
19.37805826
19.37827297
19.37849662
19.37872911
19.37897029
19.3792199
19.37947757
19.37974284
19.38001512
19.38029368
19.38057769
19.38086615
19.38115794
19.38145177
19.38174625
19.38203981
19.38233078
19.38261735
19.38289761
19.38316955
19.38343111
19.38368017
19.3839146
19.38413225
19.38433105
19.38450899
19.38466417
19.38479481
19.38489933
19.38497633
19.38502465
19.38504339
19.38503182
19.38498958
19.38491659
19.38481299
19.38467924
19.384516
19.38432421
19.384105
19.38385969
19.38358975
19.38329678
19.38298246
19.38264854
19.38229678
19.38192893
19.38154673
19.38115184
19.38074586
19.38033027
19.37990646
19.3794757
19.37903913
19.37859777
19.37815251
19.37770411
19.37725324
19.37680046
19.37634622
19.37589093
19.37543489
19.3749784
19.37479491
19.37488515
19.37497602
19.37506798
19.37516145
19.37525686
19.37535467
19.3754553
19.37555921
19.37566685
19.37577867
19.37589512
19.37601667
19.37614378
19.37627692
19.37641653
19.37656309
19.37671704
19.37687884
19.37704891
19.37722769
19.37741556
19.37761292
19.37782009
19.37803739
19.37826508
19.37850337
19.37875241
19.37901228
19.37928297
19.37956439
19.37985634
19.38015851
19.38047047
19.38079165
19.38112134
19.38145868
19.38180264
19.38215202
19.38250547
19.38286143
19.38321821
19.38357392
19.38392652
19.38427382
19.38461352
19.38494317
19.38526028
19.38556226
19.38584653
19.38611049
19.38635162
19.38656748
19.38675574
19.38691427
19.38704113
19.38713462
19.38719333
19.38721617
19.38720224
19.38715114
19.38706272
19.3869372
19.38677509
19.38657725
19.38634479
19.3860791
19.38578178
19.38545462
19.38509956
19.38471865
19.38431401
19.38388779
19.38344211
19.38297907
19.38250071
19.38200895
19.38150559
19.38099233
19.38047068
19.37994205
19.37940764
19.37886855
19.3783257
19.37777989
19.37723179
19.37668197
19.37613088
19.37557892
19.37502643
19.37480241
19.37490773
19.37501379
19.37512111
19.3752302
19.37534156
19.37545571
19.37557316
19.37569444
19.37582008
19.37595059
19.37608651
19.37622839
19.37637676
19.37653216
19.37669513
19.3768662
19.37704592
19.3772348
19.37743334
19.37764206
19.3778614
19.37809181
19.37833371
19.37858744
19.37885331
19.37913158
19.37942242
19.37972592
19.38004208
19.38037079
19.38071183
19.38106484
19.38142932
19.3818046
19.38218987
19.38258411
19.38298612
19.38339453
19.38380772
19.38422391
19.38464109
19.38505707
19.38546947
19.38587573
19.38627313
19.38665884
19.38702992
19.38738334
19.38771606
19.38802507
19.38830739
19.38856015
19.38878064
19.38896634
19.38911498
19.38922457
19.38929344
19.38932032
19.38930418
19.38924449
19.38914114
19.38899434
19.38880474
19.38857331
19.38830137
19.38799054
19.38764273
19.38726002
19.38684471
19.38639919
19.38592594
19.38542749
19.38490634
19.38436495
19.38380569
19.38323081
19.38264244
19.38204255
19.38143291
19.38081516
19.38019072
19.37956086
19.37892665
19.37828902
19.37764876
19.3770065
19.37636281
19.37571812
19.37507284
19.37480959
19.37492934
19.37504994
19.37517196
19.375296
19.37542262
19.37555242
19.37568597
19.37582387
19.37596673
19.37611514
19.3762697
19.37643104
19.37659975
19.37677647
19.37696181
19.37715636
19.37736075
19.37757556
19.37780138
19.37803877
19.37828826
19.37855036
19.37882552
19.37911417
19.37941665
19.37973325
19.38006416
19.38040951
19.38076929
19.38114339
19.38153155
19.38193337
19.38234827
19.38277553
19.38321419
19.38366311
19.38412094
19.3845861
19.38505677
19.38553092
19.38600626
19.38648029
19.3869503
19.38741338
19.38786642
19.3883062
19.38872934
19.38913242
19.38951195
19.38986447
19.39018659
19.39047504
19.3907267
19.3909387
19.39110844
19.39123364
19.3913124
19.39134326
19.39132502
19.39125712
19.39113939
19.39097212
19.39075601
19.39049219
19.39018219
19.38982787
19.38943137
19.38899513
19.38852174
19.38801396
19.38747463
19.38690663
19.38631282
19.38569601
19.3850589
19.38440408
19.38373396
19.38305078
19.38235658
19.3816532
19.38094228
19.38022524
19.37950331
19.37877754
19.37804882
19.37731788
19.37658532
19.37585167
19.37511737
19.37481641
19.37494985
19.37508423
19.37522022
19.37535844
19.37549955
19.37564419
19.37579302
19.37594671
19.37610591
19.3762713
19.37644356
19.37662336
19.3768114
19.37700836
19.37721493
19.37743178
19.3776596
19.37789904
19.37815077
19.37841539
19.37869353
19.37898573
19.37929251
19.37961434
19.37995161
19.38030465
19.38067369
19.38105885
19.38146013
19.38187741
19.38231042
19.38275871
19.38322164
19.3836984
19.38418795
19.38468901
19.38520007
19.38571937
19.3862449
19.38677437
19.38730525
19.38783474
19.38835982
19.38887723
19.3893835
19.38987502
19.39034802
19.39079865
19.39122302
19.39161726
19.39197756
19.39230024
19.39258183
19.3928191
19.39300912
19.39314935
19.39323765
19.39327238
19.39325221
19.3931765
19.39304506
19.39285822
19.39261677
19.39232199
19.39197559
19.39157965
19.3911366
19.39064916
19.39012025
19.38955296
19.38895047
19.38831602
19.38765281
19.38696398
19.38625257
19.38552147
19.38477336
19.38401077
19.38323596
19.38245098
19.38165766
19.38085758
19.38005212
19.37924244
19.37842951
19.37761415
19.37679704
19.37597874
19.37515974
19.37482281
19.37496912
19.37511648
19.37526558
19.37541714
19.37557186
19.37573046
19.37589366
19.37606218
19.37623675
19.37641811
19.37660701
19.37680418
19.37701039
19.37722639
19.37745292
19.37769075
19.3779406
19.37820322
19.37847932
19.37876958
19.37907467
19.37939521
19.37973176
19.38008484
19.38045488
19.38084225
19.3812472
19.38166987
19.38211027
19.38256827
19.38304358
19.3835357
19.38404396
19.38456745
19.38510505
19.38565534
19.3862167
19.38678718
19.38736458
19.38794639
19.38852984
19.38911184
19.38968908
19.39025796
19.3908147
19.39135528
19.39187558
19.39237136
19.39283832
19.39327219
19.39366878
19.39402402
19.39433409
19.39459541
19.39480476
19.39495934
19.39505677
19.39509525
19.3950733
19.39499023
19.39484583
19.39464046
19.39437501
19.39405088
19.39366997
19.39323458
19.39274741
19.39221145
19.39162993
19.39100627
19.39034397
19.38964661
19.38891772
19.38816076
19.38737908
19.38657584
19.38575403
19.3849164
19.38406544
19.38320341
19.38233231
19.38145387
19.3805696
19.37968076
19.37878842
19.37789347
19.37699663
19.37609853
19.37519968
19.37482877
19.37498705
19.37514646
19.37530777
19.37547173
19.37563912
19.3758107
19.37598726
19.37616958
19.37635845
19.37655466
19.37675904
19.37697237
19.37719549
19.3774292
19.37767431
19.37793166
19.37820203
19.37848622
19.37878501
19.37909914
19.37942933
19.37977626
19.38014054
19.38052273
19.38092331
19.38134267
19.38178109
19.38223874
19.38271562
19.38321161
19.38372638
19.38425942
19.38481
19.38537714
19.38595962
19.38655594
19.38716432
19.38778268
19.38840861
19.38903942
19.38967208
19.39030328
19.3909294
19.39154656
19.39215062
19.39273726
19.39330197
19.39384015
19.39434713
19.39481827
19.39524899
19.39563488
19.39597176
19.39625575
19.39648333
19.39665145
19.39675753
19.39679959
19.39677604
19.3966861
19.39652958
19.39630686
19.3960189
19.39566725
19.39525397
19.39478159
19.39425304
19.39367157
19.39304073
19.39236422
19.39164588
19.39088958
19.39009917
19.38927843
19.38843098
19.38756027
19.38666953
19.38576174
19.38483961
19.38390559
19.38296184
19.38201023
19.38105238
19.38008966
19.37912322
19.378154
19.37718279
19.37621025
19.37523692
19.37483424
19.37500352
19.37517401
19.37534652
19.37552188
19.3757009
19.37588441
19.37607324
19.37626824
19.37647024
19.37668011
19.37689871
19.37712689
19.37736554
19.37761553
19.37787773
19.37815301
19.37844224
19.37874627
19.37906592
19.379402
19.37975528
19.38012648
19.38051627
19.38092525
19.38135393
19.38180274
19.38227199
19.38276184
19.38327234
19.38380332
19.38435447
19.38492523
19.38551483
19.38612223
19.38674614
19.38738495
19.38803675
19.38869932
19.38937011
19.39004621
19.3907244
19.39140112
19.39207249
19.39273435
19.39338227
19.3940116
19.39461749
19.39519501
19.39573914
19.39624487
19.3967073
19.39712168
19.3974835
19.39778858
19.39803314
19.39821389
19.39832805
19.3983735
19.39834851
19.39825227
19.39808455
19.39784576
19.39753696
19.39715982
19.39671656
19.3962099
19.39564301
19.3950194
19.39434288
19.39361745
19.39284724
19.39203641
19.3911891
19.39030938
19.38940113
19.38846807
19.38751365
19.38654108
19.38555326
19.38455281
19.38354203
19.38252293
19.38149724
19.38046642
19.37943168
19.37839403
19.3773543
19.37631317
19.37527124
19.3748392
19.37501843
19.37519894
19.3753816
19.37556727
19.37575683
19.37595113
19.37615108
19.37635755
19.37657145
19.37679368
19.37702515
19.37726678
19.3775195
19.37778423
19.3780619
19.37835343
19.37865975
19.37898174
19.37932029
19.37967626
19.38005046
19.38044367
19.38085658
19.38128985
19.38174402
19.38221954
19.38271675
19.38323583
19.38377683
19.38433959
19.38492377
19.38552879
19.38615385
19.38679785
19.38745942
19.38813686
19.38882818
19.389531
19.39024262
19.39095999
19.39167966
19.39239787
19.39311051
19.39381316
19.39450111
19.39516941
19.39581293
19.3964264
19.3970045
19.39754188
19.39803333
19.39847378
19.39885845
19.39918286
19.39944301
19.39963536
19.39975696
19.39980556
19.39977931
19.39967734
19.39949942
19.39924599
19.39891819
19.39851778
19.39804716
19.39750922
19.39690734
19.39624527
19.39552708
19.39475703
19.39393951
19.39307896
19.39217981
19.39124635
19.39028274
19.38929291
19.38828054
19.38724903
19.38620147
19.38514061
19.38406891
19.38298848
19.38190116
19.38080847
19.37971171
19.37861192
19.37750998
19.3764066
19.37530238
19.3748436
19.37503168
19.37522111
19.37541279
19.37560763
19.37580655
19.37601045
19.37622028
19.37643696
19.37666143
19.37689465
19.37713757
19.37739116
19.37765639
19.37793424
19.37822567
19.37853166
19.37885317
19.37919115
19.37954652
19.37992019
19.38031302
19.38072581
19.38115931
19.3816142
19.38209107
19.38259039
19.38311251
19.38365764
19.38422582
19.38481691
19.38543055
19.38606614
19.38672283
19.3873995
19.38809469
19.38880664
19.38953325
19.39027204
19.39102018
19.39177444
19.39253123
19.39328658
19.39403618
19.39477536
19.39549918
19.39620242
19.39687968
19.39752541
19.39813399
19.39869979
19.39921731
19.3996812
19.40008641
19.40042822
19.40070239
19.4009052
19.40103353
19.40108499
19.40105766
19.40095059
19.40076355
19.40049702
19.40015219
19.39973094
19.39923579
19.39866982
19.39803659
19.39734008
19.39658456
19.39577455
19.39491468
19.39400964
19.39306409
19.39208257
19.39106945
19.39002887
19.38896472
19.38788056
19.38677963
19.38566485
19.38453876
19.38340361
19.3822613
19.38111344
19.37996136
19.37880617
19.37764876
19.37648988
19.37533015
19.37484743
19.3750432
19.37524037
19.37543989
19.3756427
19.37584976
19.37606201
19.37628042
19.37650597
19.37673963
19.3769824
19.37723528
19.37749926
19.37777537
19.37806461
19.37836801
19.37868657
19.37902129
19.37937317
19.37974318
19.38013225
19.38054127
19.3809711
19.38142252
19.38189623
19.38239286
19.38291289
19.3834567
19.38402452
19.38461638
19.38523215
19.38587146
19.38653369
19.38721797
19.38792312
19.38864764
19.38938971
19.39014713
19.39091733
19.39169736
19.39248386
19.39327309
19.39406092
19.39484283
19.39561398
19.3963692
19.39710304
19.39780986
19.39848386
19.39911915
19.39970988
19.40025027
19.40073474
19.40115798
19.40151507
19.40180157
19.40201359
19.40214786
19.40220187
19.40217361
19.4020621
19.4018671
19.40158911
19.40122938
19.4007899
19.40027328
19.39968278
19.39902211
19.39829544
19.39750727
19.3966623
19.39576539
19.39482145
19.39383534
19.39281181
19.39175544
19.39067055
19.38956118
19.38843106
19.38728357
19.38612173
19.38494822
19.38376535
19.3825751
19.38137915
19.38017887
19.3789754
19.37776966
19.37656243
19.37535433
19.37485066
19.37505291
19.37525661
19.37546274
19.37567227
19.37588618
19.37610547
19.37633112
19.37656415
19.37680556
19.37705638
19.37731765
19.3775904
19.37787568
19.37817454
19.37848803
19.37881719
19.37916306
19.37952667
19.37990902
19.38031107
19.38073377
19.38117798
19.38164452
19.38213412
19.38264742
19.38318495
19.38374708
19.38433405
19.38494593
19.38558255
19.38624355
19.38692831
19.38763591
19.38836514
19.38911448
19.38988203
19.39066553
19.39146232
19.39226936
19.39308318
19.3938999
19.39471525
19.39552457
19.39632284
19.39710469
19.39786451
19.39859642
19.39929443
19.39995243
19.40056434
19.40112417
19.40162613
19.40206472
19.40243483
19.40273183
19.4029517
19.40309103
19.40314723
19.40311821
19.40300296
19.40280122
19.40251352
19.40214115
19.40168619
19.40115137
19.40054004
19.3998561
19.39910385
19.39828797
19.39741336
19.39648504
19.39550813
19.39448765
19.39342853
19.39233552
19.3912131
19.39006545
19.38889643
19.38770954
19.3865079
19.38529427
19.38407105
19.38284028
19.38160367
19.38036265
19.37911838
19.37787181
19.37662372
19.37537476
19.37485326
19.37506075
19.37526973
19.37548119
19.37569615
19.3759156
19.37614056
19.37637206
19.37661113
19.3768588
19.37711613
19.37738418
19.37766401
19.3779567
19.37826333
19.37858496
19.37892269
19.37927757
19.37965066
19.38004298
19.38045553
19.38088927
19.38134511
19.38182387
19.38232632
19.38285311
19.38340478
19.38398172
19.3845842
19.38521226
19.38586576
19.38654432
19.3872473
19.38797378
19.38872253
19.38949197
19.39028016
19.39108479
19.39190314
19.39273207
19.39356803
19.39440706
19.39524475
19.39607631
19.39689659
19.39770007
19.39848098
19.39923329
19.39995081
19.40062727
19.4012564
19.40183205
19.40234825
19.40279933
19.40318003
19.40348559
19.40371186
19.40385533
19.40391333
19.40388371
19.40376543
19.40355823
19.40326264
19.40288002
19.40241249
19.40186288
19.40123465
19.4005318
19.39975879
19.39892042
19.39802174
19.39706794
19.39606426
19.3950159
19.39392793
19.39280521
19.39165236
19.39047368
19.38927314
19.38805433
19.38682045
19.38557434
19.38431845
19.38305487
19.38178535
19.38051136
19.37923407
19.37795446
19.37667331
19.3753913
19.37485523
19.37506668
19.37527964
19.37549513
19.37571419
19.37593783
19.37616708
19.376403
19.37664663
19.37689903
19.37716128
19.37743445
19.37771963
19.37801792
19.37833041
19.37865821
19.37900241
19.3793641
19.37974434
19.3801442
19.38056469
19.38100679
19.38147141
19.38195942
19.38247158
19.38300857
19.38357093
19.38415909
19.38477329
19.38541359
19.38607986
19.38677171
19.38748849
19.38822927
19.38899279
19.38977745
19.39058127
19.39140191
19.39223659
19.39308212
19.39393487
19.3947908
19.39564543
19.39649387
19.39733084
19.39815075
19.39894767
19.39971545
19.40044779
19.40113827
19.40178049
19.40236816
19.40289518
19.40335575
19.40374451
19.40405658
19.40428772
19.40443435
19.40449373
19.40446367
19.40434309
19.40413175
19.40383018
19.40343978
19.40296272
19.40240188
19.40176082
19.40104363
19.40025486
19.39939943
19.3984825
19.39750937
19.3964854
19.3954159
19.39430604
19.39316081
19.3919849
19.39078271
19.38955829
19.3883153
19.38705701
19.3857863
19.38450567
19.38321725
19.38192283
19.38062388
19.37932161
19.378017
19.37671084
19.3754038
19.37485655
19.37507065
19.37528628
19.37550448
19.37572628
19.37595272
19.37618485
19.37642373
19.37667042
19.37692599
19.37719153
19.37746813
19.3777569
19.37805894
19.37837537
19.3787073
19.37905584
19.37942209
19.37980714
19.38021205
19.38063786
19.38108556
19.38155608
19.38205028
19.38256895
19.38311278
19.38368232
19.38427799
19.38490006
19.38554858
19.38622341
19.38692418
19.38765022
19.38840059
19.38917402
19.3899689
19.39078323
19.39161461
19.39246026
19.39331694
19.39418097
19.39504826
19.39591427
19.39677404
19.39762225
19.39845319
19.39926088
19.40003907
19.40078138
19.40148129
19.40213232
19.40272808
19.40326238
19.40372934
19.40412353
19.40443999
19.40467441
19.40482316
19.40488348
19.40485312
19.40473101
19.40451688
19.4042113
19.40381567
19.40333219
19.40276381
19.40211413
19.40138729
19.40058793
19.39972103
19.39879183
19.39780571
19.3967681
19.3956844
19.39455984
19.39339948
19.39220808
19.39099011
19.38974965
19.38849043
19.38721575
19.38592853
19.3846313
19.38332621
19.38201507
19.38069938
19.37938034
19.37805895
19.37673601
19.3754122
19.37485721
19.37507264
19.37528961
19.37550916
19.37573234
19.37596019
19.37619377
19.37643413
19.37668235
19.37693951
19.37720671
19.37748503
19.3777756
19.37807952
19.37839792
19.37873192
19.37908264
19.37945118
19.37983864
19.38024609
19.38067457
19.38112507
19.38159854
19.38209586
19.3826178
19.38316506
19.3837382
19.38433765
19.38496365
19.3856163
19.38629543
19.38700067
19.38773136
19.38848655
19.38926496
19.39006497
19.39088457
19.39172135
19.39257251
19.39343478
19.39430448
19.39517748
19.39604921
19.39691468
19.39776853
19.39860501
19.39941811
19.40020154
19.40094885
19.40165351
19.40230897
19.40290879
19.40344676
19.40391694
19.40431385
19.40463252
19.40486859
19.40501842
19.4050792
19.4050487
19.40492582
19.40471029
19.40440269
19.40400443
19.40351773
19.40294557
19.40229155
19.40155986
19.40075518
19.39988252
19.39894715
19.3979545
19.39691004
19.3958192
19.39468726
19.3935193
19.39232012
19.39109422
19.38984572
19.38857834
19.38729543
19.38599992
19.38469435
19.3833809
19.38206137
19.38073727
19.37940982
19.37808001
19.37674865
19.37541641
19.37485721
19.37507264
19.37528961
19.37550916
19.37573234
19.37596019
19.37619377
19.37643413
19.37668235
19.37693951
19.37720671
19.37748503
19.3777756
19.37807952
19.37839792
19.37873192
19.37908264
19.37945118
19.37983864
19.38024609
19.38067457
19.38112507
19.38159854
19.38209586
19.3826178
19.38316506
19.3837382
19.38433765
19.38496365
19.3856163
19.38629543
19.38700067
19.38773136
19.38848655
19.38926496
19.39006497
19.39088457
19.39172135
19.39257251
19.39343478
19.39430448
19.39517748
19.39604921
19.39691468
19.39776853
19.39860502
19.39941811
19.40020154
19.40094886
19.40165351
19.40230897
19.40290879
19.40344676
19.40391694
19.40431385
19.40463252
19.40486859
19.40501842
19.4050792
19.4050487
19.40492582
19.40471029
19.40440269
19.40400443
19.40351774
19.40294557
19.40229155
19.40155987
19.40075518
19.39988252
19.39894715
19.3979545
19.39691004
19.3958192
19.39468726
19.3935193
19.39232012
19.39109422
19.38984572
19.38857834
19.38729543
19.38599992
19.38469435
19.3833809
19.38206137
19.38073727
19.37940982
19.37808001
19.37674865
19.37541641
19.37485655
19.37507065
19.37528628
19.37550448
19.37572628
19.37595272
19.37618485
19.37642373
19.37667042
19.37692599
19.37719153
19.37746814
19.3777569
19.37805894
19.37837537
19.3787073
19.37905584
19.37942209
19.37980714
19.38021205
19.38063786
19.38108556
19.38155608
19.38205028
19.38256895
19.38311278
19.38368232
19.38427799
19.38490006
19.38554858
19.38622341
19.38692418
19.38765022
19.38840059
19.38917403
19.3899689
19.39078323
19.39161462
19.39246026
19.39331694
19.39418097
19.39504826
19.39591427
19.39677405
19.39762225
19.39845319
19.39926088
19.40003908
19.40078138
19.40148129
19.40213232
19.40272808
19.40326238
19.40372935
19.40412353
19.40443999
19.40467441
19.40482317
19.40488348
19.40485312
19.40473101
19.40451688
19.4042113
19.40381567
19.40333219
19.40276382
19.40211413
19.4013873
19.40058794
19.39972104
19.39879183
19.39780571
19.3967681
19.3956844
19.39455984
19.39339948
19.39220808
19.39099011
19.38974965
19.38849043
19.38721575
19.38592853
19.3846313
19.38332621
19.38201507
19.38069938
19.37938034
19.37805895
19.37673601
19.3754122
19.37485523
19.37506668
19.37527964
19.37549513
19.37571419
19.37593783
19.37616708
19.376403
19.37664663
19.37689903
19.37716128
19.37743445
19.37771963
19.37801792
19.37833041
19.37865821
19.37900241
19.3793641
19.37974435
19.38014421
19.3805647
19.38100679
19.38147141
19.38195942
19.38247158
19.38300857
19.38357093
19.38415909
19.38477329
19.38541359
19.38607986
19.38677171
19.38748849
19.38822927
19.38899279
19.38977745
19.39058128
19.39140191
19.39223659
19.39308212
19.39393488
19.39479081
19.39564543
19.39649387
19.39733085
19.39815075
19.39894767
19.39971546
19.40044779
19.40113827
19.4017805
19.40236817
19.40289518
19.40335576
19.40374451
19.40405659
19.40428773
19.40443435
19.40449373
19.40446367
19.4043431
19.40413175
19.40383018
19.40343978
19.40296272
19.40240189
19.40176083
19.40104363
19.40025487
19.39939944
19.3984825
19.39750937
19.3964854
19.3954159
19.39430604
19.39316081
19.3919849
19.39078271
19.38955829
19.3883153
19.38705701
19.3857863
19.38450567
19.38321725
19.38192283
19.38062388
19.37932161
19.378017
19.37671084
19.3754038
19.37485326
19.37506075
19.37526973
19.37548119
19.37569615
19.3759156
19.37614057
19.37637206
19.37661113
19.3768588
19.37711613
19.37738418
19.37766401
19.3779567
19.37826333
19.37858496
19.37892269
19.37927757
19.37965066
19.38004298
19.38045553
19.38088927
19.38134511
19.38182387
19.38232632
19.38285311
19.38340478
19.38398173
19.3845842
19.38521226
19.38586576
19.38654432
19.3872473
19.38797378
19.38872253
19.38949197
19.39028016
19.39108479
19.39190314
19.39273207
19.39356804
19.39440706
19.39524475
19.39607631
19.39689659
19.39770008
19.39848099
19.39923329
19.39995081
19.40062727
19.40125641
19.40183206
19.40234826
19.40279933
19.40318003
19.4034856
19.40371186
19.40385534
19.40391334
19.40388372
19.40376544
19.40355823
19.40326264
19.40288002
19.40241249
19.40186288
19.40123465
19.4005318
19.39975879
19.39892042
19.39802174
19.39706794
19.39606427
19.39501591
19.39392793
19.39280521
19.39165236
19.39047368
19.38927314
19.38805433
19.38682045
19.38557434
19.38431845
19.38305487
19.38178535
19.38051136
19.37923407
19.37795446
19.37667331
19.3753913
19.37485066
19.37505291
19.37525661
19.37546274
19.37567227
19.37588618
19.37610547
19.37633112
19.37656415
19.37680556
19.37705638
19.37731765
19.3775904
19.37787568
19.37817454
19.37848803
19.37881719
19.37916306
19.37952667
19.37990902
19.38031107
19.38073377
19.38117798
19.38164452
19.38213412
19.38264742
19.38318495
19.38374708
19.38433405
19.38494593
19.38558255
19.38624355
19.38692831
19.38763591
19.38836515
19.38911449
19.38988203
19.39066553
19.39146233
19.39226936
19.39308318
19.3938999
19.39471526
19.39552458
19.39632284
19.3971047
19.39786451
19.39859643
19.39929443
19.39995244
19.40056435
19.40112418
19.40162614
19.40206473
19.40243483
19.40273184
19.4029517
19.40309104
19.40314724
19.40311822
19.40300297
19.40280123
19.40251352
19.40214116
19.4016862
19.40115137
19.40054005
19.3998561
19.39910386
19.39828798
19.39741336
19.39648505
19.39550813
19.39448765
19.39342854
19.39233552
19.3912131
19.39006545
19.38889643
19.38770954
19.3865079
19.38529427
19.38407105
19.38284028
19.38160367
19.38036265
19.37911838
19.37787181
19.37662372
19.37537476
19.37484743
19.3750432
19.37524037
19.37543989
19.3756427
19.37584976
19.37606201
19.37628042
19.37650597
19.37673963
19.3769824
19.37723528
19.37749926
19.37777537
19.37806461
19.37836801
19.37868657
19.37902129
19.37937318
19.37974318
19.38013225
19.38054127
19.3809711
19.38142252
19.38189624
19.38239286
19.38291289
19.3834567
19.38402452
19.38461639
19.38523216
19.38587146
19.38653369
19.38721797
19.38792312
19.38864764
19.38938971
19.39014713
19.39091734
19.39169736
19.39248387
19.3932731
19.39406093
19.39484284
19.39561399
19.3963692
19.39710305
19.39780987
19.39848386
19.39911916
19.39970989
19.40025028
19.40073474
19.40115798
19.40151508
19.40180158
19.4020136
19.40214787
19.40220187
19.40217361
19.40206211
19.40186711
19.40158912
19.40122939
19.4007899
19.40027329
19.39968278
19.39902212
19.39829545
19.39750727
19.3966623
19.39576539
19.39482145
19.39383534
19.39281182
19.39175544
19.39067055
19.38956118
19.38843106
19.38728357
19.38612173
19.38494822
19.38376535
19.3825751
19.38137915
19.38017887
19.3789754
19.37776966
19.37656243
19.37535433
19.3748436
19.37503169
19.37522111
19.37541279
19.37560763
19.37580655
19.37601046
19.37622028
19.37643696
19.37666143
19.37689465
19.37713757
19.37739116
19.37765639
19.37793424
19.37822567
19.37853166
19.37885317
19.37919115
19.37954652
19.37992019
19.38031302
19.38072581
19.38115931
19.3816142
19.38209107
19.38259039
19.38311251
19.38365764
19.38422583
19.38481692
19.38543055
19.38606614
19.38672284
19.3873995
19.38809469
19.38880665
19.38953326
19.39027205
19.39102019
19.39177445
19.39253124
19.39328659
19.39403619
19.39477537
19.39549918
19.39620243
19.39687969
19.39752542
19.398134
19.3986998
19.39921732
19.39968121
19.40008642
19.40042823
19.4007024
19.40090521
19.40103354
19.401085
19.40105767
19.4009506
19.40076356
19.40049703
19.4001522
19.39973095
19.3992358
19.39866983
19.3980366
19.39734008
19.39658456
19.39577455
19.39491468
19.39400964
19.39306409
19.39208257
19.39106945
19.39002887
19.38896472
19.38788056
19.38677963
19.38566485
19.38453876
19.38340361
19.3822613
19.38111344
19.37996136
19.37880617
19.37764876
19.37648988
19.37533015
19.3748392
19.37501843
19.37519894
19.3753816
19.37556727
19.37575683
19.37595113
19.37615108
19.37635755
19.37657145
19.37679368
19.37702515
19.37726678
19.3775195
19.37778423
19.3780619
19.37835343