/*--------------------------------*- C++ -*----------------------------------*\
| =========                 |                                                 |
| \\      /  F ield         | foam-extend: Open Source CFD                    |
|  \\    /   O peration     | Version:     4.1                                |
|   \\  /    A nd           | Web:         http://www.foam-extend.org         |
|    \\/     M anipulation  |                                                 |
\*---------------------------------------------------------------------------*/
FoamFile
{
    version     2.0;
    format      ascii;
    class       surfaceVectorField;
    location    "0";
    object      refTangent;
}
// * * * * * * * * * * * * * * * * * * * * * * * * * * * * * * * * * * * * * //

dimensions      [0 0 0 0 0 0 0];

internalField   nonuniform List<vector> 9((0.987688 -0.156434 0) (0.951057 -0.309016 0) (0.891007 -0.45399 0) (0.809018 -0.587784 0) (0.707108 -0.707105 0) (0.587787 -0.809016 0) (0.45399 -0.891007 0) (0.309017 -0.951057 0) (0.156434 -0.987688 0));

boundaryField
{
    left
    {
        type            calculated;
        value           uniform (1 -8.83946e-36 0);
    }
    right
    {
        type            calculated;
        value           uniform (5.05322e-16 -1 0);
    }
    beam
    {
        type            empty;
    }
}


// ************************************************************************* //
