/*--------------------------------*- C++ -*----------------------------------*\
| =========                 |                                                 |
| \\      /  F ield         | foam-extend: Open Source CFD                    |
|  \\    /   O peration     | Version:     4.1                                |
|   \\  /    A nd           | Web:         http://www.foam-extend.org         |
|    \\/     M anipulation  |                                                 |
\*---------------------------------------------------------------------------*/
FoamFile
{
    version     2.0;
    format      ascii;
    class       volVectorField;
    location    "0";
    object      refW;
}
// * * * * * * * * * * * * * * * * * * * * * * * * * * * * * * * * * * * * * //

dimensions      [0 1 0 0 0 0 0];

internalField   nonuniform List<vector> 10((-0.00807208 -0.308267 0) (-0.217408 -2.763 0) (-1.00156 -7.61203 0) (-2.72801 -14.736 0) (-5.74101 -23.9594 0) (-10.3532 -35.0551 0) (-16.8377 -47.7502 0) (-25.4218 -61.7318 0) (-36.2808 -76.6556 0) (-49.534 -92.1543 0));

boundaryField
{
    left
    {
        type            calculated;
        value           uniform (0 0 0);
    }
    right
    {
        type            calculated;
        value           uniform (-57.0798 -100 0);
    }
    beam
    {
        type            empty;
    }
}


// ************************************************************************* //
